V -t * -v 1.0a5 -a 0
A -t * -n 1 -p 0 -o 0xffffffff -c 31 -a 1
A -t * -h 1 -m 2147483647 -s 0
n -t * -a 0 -s 0 -S UP -v circle -c black -i black
n -t * -a 1 -s 1 -S UP -v circle -c black -i black
n -t * -a 2 -s 2 -S UP -v circle -c black -i black
n -t * -a 3 -s 3 -S UP -v circle -c black -i black
n -t * -a 4 -s 4 -S UP -v circle -c black -i black
n -t * -a 5 -s 5 -S UP -v circle -c black -i black
n -t * -a 6 -s 6 -S UP -v circle -c black -i black
n -t * -a 7 -s 7 -S UP -v circle -c black -i black
n -t * -a 8 -s 8 -S UP -v circle -c black -i black
n -t * -a 9 -s 9 -S UP -v circle -c black -i black
n -t * -a 10 -s 10 -S UP -v circle -c black -i black
n -t * -a 11 -s 11 -S UP -v circle -c black -i black
n -t * -a 12 -s 12 -S UP -v circle -c black -i black
n -t * -a 13 -s 13 -S UP -v circle -c black -i black
n -t * -a 14 -s 14 -S UP -v circle -c black -i black
n -t * -a 15 -s 15 -S UP -v circle -c black -i black
X -t * -n 16 -r 10000000 -D 0.0000256 -o left
L -t * -s 16 -d 0 -o up
L -t * -s 16 -d 1 -o down
L -t * -s 16 -d 2 -o up
L -t * -s 16 -d 3 -o down
L -t * -s 16 -d 4 -o up
L -t * -s 16 -d 5 -o down
L -t * -s 16 -d 6 -o up
L -t * -s 16 -d 7 -o down
L -t * -s 16 -d 8 -o up
L -t * -s 16 -d 9 -o down
L -t * -s 16 -d 10 -o up
L -t * -s 16 -d 11 -o down
L -t * -s 16 -d 12 -o up
L -t * -s 16 -d 13 -o down
L -t * -s 16 -d 14 -o up
L -t * -s 16 -d 15 -o down
h -t 0.25 -s 1 -d 16 -p cbr -e 1024 -c 0 -i 0 -a 0 -x {1.0 0.0 0 ------- null}
h -t 0.25 -s 2 -d 16 -p cbr -e 1024 -c 0 -i 1 -a 0 -x {2.0 0.1 0 ------- null}
h -t 0.25 -s 3 -d 16 -p cbr -e 1024 -c 0 -i 2 -a 0 -x {3.0 0.2 0 ------- null}
h -t 0.25 -s 4 -d 16 -p cbr -e 1024 -c 0 -i 3 -a 0 -x {4.0 0.3 0 ------- null}
h -t 0.25 -s 5 -d 16 -p cbr -e 1024 -c 0 -i 4 -a 0 -x {5.0 0.4 0 ------- null}
h -t 0.25 -s 6 -d 16 -p cbr -e 1024 -c 0 -i 5 -a 0 -x {6.0 0.5 0 ------- null}
h -t 0.25 -s 7 -d 16 -p cbr -e 1024 -c 0 -i 6 -a 0 -x {7.0 0.6 0 ------- null}
h -t 0.25 -s 8 -d 16 -p cbr -e 1024 -c 0 -i 7 -a 0 -x {8.0 0.7 0 ------- null}
h -t 0.25 -s 9 -d 16 -p cbr -e 1024 -c 0 -i 8 -a 0 -x {9.0 0.8 0 ------- null}
h -t 0.25 -s 10 -d 16 -p cbr -e 1024 -c 0 -i 9 -a 0 -x {10.0 0.9 0 ------- null}
h -t 0.25 -s 11 -d 16 -p cbr -e 1024 -c 0 -i 10 -a 0 -x {11.0 0.10 0 ------- null}
h -t 0.25 -s 12 -d 16 -p cbr -e 1024 -c 0 -i 11 -a 0 -x {12.0 0.11 0 ------- null}
h -t 0.25 -s 13 -d 16 -p cbr -e 1024 -c 0 -i 12 -a 0 -x {13.0 0.12 0 ------- null}
h -t 0.25 -s 14 -d 16 -p cbr -e 1024 -c 0 -i 13 -a 0 -x {14.0 0.13 0 ------- null}
h -t 0.25 -s 15 -d 16 -p cbr -e 1024 -c 0 -i 14 -a 0 -x {15.0 0.14 0 ------- null}
+ -t 0.2500256 -s 1 -d 16 -p cbr -e 1024 -c 0 -i 0 -a 0 -x {1.0 0.0 0 ------- null}
- -t 0.2500256 -s 1 -d 16 -p cbr -e 1024 -c 0 -i 0 -a 0 -x {1.0 0.0 0 ------- null}
h -t 0.2500256 -s 1 -d 16 -p cbr -e 1024 -c 0 -i 0 -a 0 -x {1.0 0.0 -1 ------- null}
+ -t 0.2500256 -s 2 -d 16 -p cbr -e 1024 -c 0 -i 1 -a 0 -x {2.0 0.1 0 ------- null}
- -t 0.2500256 -s 2 -d 16 -p cbr -e 1024 -c 0 -i 1 -a 0 -x {2.0 0.1 0 ------- null}
h -t 0.2500256 -s 2 -d 16 -p cbr -e 1024 -c 0 -i 1 -a 0 -x {2.0 0.1 -1 ------- null}
+ -t 0.2500256 -s 3 -d 16 -p cbr -e 1024 -c 0 -i 2 -a 0 -x {3.0 0.2 0 ------- null}
- -t 0.2500256 -s 3 -d 16 -p cbr -e 1024 -c 0 -i 2 -a 0 -x {3.0 0.2 0 ------- null}
h -t 0.2500256 -s 3 -d 16 -p cbr -e 1024 -c 0 -i 2 -a 0 -x {3.0 0.2 -1 ------- null}
+ -t 0.2500256 -s 4 -d 16 -p cbr -e 1024 -c 0 -i 3 -a 0 -x {4.0 0.3 0 ------- null}
- -t 0.2500256 -s 4 -d 16 -p cbr -e 1024 -c 0 -i 3 -a 0 -x {4.0 0.3 0 ------- null}
h -t 0.2500256 -s 4 -d 16 -p cbr -e 1024 -c 0 -i 3 -a 0 -x {4.0 0.3 -1 ------- null}
+ -t 0.2500256 -s 5 -d 16 -p cbr -e 1024 -c 0 -i 4 -a 0 -x {5.0 0.4 0 ------- null}
- -t 0.2500256 -s 5 -d 16 -p cbr -e 1024 -c 0 -i 4 -a 0 -x {5.0 0.4 0 ------- null}
h -t 0.2500256 -s 5 -d 16 -p cbr -e 1024 -c 0 -i 4 -a 0 -x {5.0 0.4 -1 ------- null}
+ -t 0.2500256 -s 6 -d 16 -p cbr -e 1024 -c 0 -i 5 -a 0 -x {6.0 0.5 0 ------- null}
- -t 0.2500256 -s 6 -d 16 -p cbr -e 1024 -c 0 -i 5 -a 0 -x {6.0 0.5 0 ------- null}
h -t 0.2500256 -s 6 -d 16 -p cbr -e 1024 -c 0 -i 5 -a 0 -x {6.0 0.5 -1 ------- null}
+ -t 0.2500256 -s 7 -d 16 -p cbr -e 1024 -c 0 -i 6 -a 0 -x {7.0 0.6 0 ------- null}
- -t 0.2500256 -s 7 -d 16 -p cbr -e 1024 -c 0 -i 6 -a 0 -x {7.0 0.6 0 ------- null}
h -t 0.2500256 -s 7 -d 16 -p cbr -e 1024 -c 0 -i 6 -a 0 -x {7.0 0.6 -1 ------- null}
+ -t 0.2500256 -s 8 -d 16 -p cbr -e 1024 -c 0 -i 7 -a 0 -x {8.0 0.7 0 ------- null}
- -t 0.2500256 -s 8 -d 16 -p cbr -e 1024 -c 0 -i 7 -a 0 -x {8.0 0.7 0 ------- null}
h -t 0.2500256 -s 8 -d 16 -p cbr -e 1024 -c 0 -i 7 -a 0 -x {8.0 0.7 -1 ------- null}
+ -t 0.2500256 -s 9 -d 16 -p cbr -e 1024 -c 0 -i 8 -a 0 -x {9.0 0.8 0 ------- null}
- -t 0.2500256 -s 9 -d 16 -p cbr -e 1024 -c 0 -i 8 -a 0 -x {9.0 0.8 0 ------- null}
h -t 0.2500256 -s 9 -d 16 -p cbr -e 1024 -c 0 -i 8 -a 0 -x {9.0 0.8 -1 ------- null}
+ -t 0.2500256 -s 10 -d 16 -p cbr -e 1024 -c 0 -i 9 -a 0 -x {10.0 0.9 0 ------- null}
- -t 0.2500256 -s 10 -d 16 -p cbr -e 1024 -c 0 -i 9 -a 0 -x {10.0 0.9 0 ------- null}
h -t 0.2500256 -s 10 -d 16 -p cbr -e 1024 -c 0 -i 9 -a 0 -x {10.0 0.9 -1 ------- null}
+ -t 0.2500256 -s 11 -d 16 -p cbr -e 1024 -c 0 -i 10 -a 0 -x {11.0 0.10 0 ------- null}
- -t 0.2500256 -s 11 -d 16 -p cbr -e 1024 -c 0 -i 10 -a 0 -x {11.0 0.10 0 ------- null}
h -t 0.2500256 -s 11 -d 16 -p cbr -e 1024 -c 0 -i 10 -a 0 -x {11.0 0.10 -1 ------- null}
+ -t 0.2500256 -s 12 -d 16 -p cbr -e 1024 -c 0 -i 11 -a 0 -x {12.0 0.11 0 ------- null}
- -t 0.2500256 -s 12 -d 16 -p cbr -e 1024 -c 0 -i 11 -a 0 -x {12.0 0.11 0 ------- null}
h -t 0.2500256 -s 12 -d 16 -p cbr -e 1024 -c 0 -i 11 -a 0 -x {12.0 0.11 -1 ------- null}
+ -t 0.2500256 -s 13 -d 16 -p cbr -e 1024 -c 0 -i 12 -a 0 -x {13.0 0.12 0 ------- null}
- -t 0.2500256 -s 13 -d 16 -p cbr -e 1024 -c 0 -i 12 -a 0 -x {13.0 0.12 0 ------- null}
h -t 0.2500256 -s 13 -d 16 -p cbr -e 1024 -c 0 -i 12 -a 0 -x {13.0 0.12 -1 ------- null}
+ -t 0.2500256 -s 14 -d 16 -p cbr -e 1024 -c 0 -i 13 -a 0 -x {14.0 0.13 0 ------- null}
- -t 0.2500256 -s 14 -d 16 -p cbr -e 1024 -c 0 -i 13 -a 0 -x {14.0 0.13 0 ------- null}
h -t 0.2500256 -s 14 -d 16 -p cbr -e 1024 -c 0 -i 13 -a 0 -x {14.0 0.13 -1 ------- null}
+ -t 0.2500256 -s 15 -d 16 -p cbr -e 1024 -c 0 -i 14 -a 0 -x {15.0 0.14 0 ------- null}
- -t 0.2500256 -s 15 -d 16 -p cbr -e 1024 -c 0 -i 14 -a 0 -x {15.0 0.14 0 ------- null}
h -t 0.2500256 -s 15 -d 16 -p cbr -e 1024 -c 0 -i 14 -a 0 -x {15.0 0.14 -1 ------- null}
r -t 0.2509192 -s 16 -d 0 -p cbr -e 1024 -c 0 -i 14 -a 0 -x {15.0 0.14 0 ------- null}
r -t 0.2518824 -s 16 -d 0 -p cbr -e 1024 -c 0 -i 7 -a 0 -x {8.0 0.7 0 ------- null}
r -t 0.2528968 -s 16 -d 0 -p cbr -e 1024 -c 0 -i 0 -a 0 -x {1.0 0.0 0 ------- null}
h -t 0.253279025453294 -s 1 -d 16 -p cbr -e 1024 -c 0 -i 15 -a 0 -x {1.0 0.0 1 ------- null}
+ -t 0.253304625453294 -s 1 -d 16 -p cbr -e 1024 -c 0 -i 15 -a 0 -x {1.0 0.0 1 ------- null}
- -t 0.253304625453294 -s 1 -d 16 -p cbr -e 1024 -c 0 -i 15 -a 0 -x {1.0 0.0 1 ------- null}
h -t 0.253304625453294 -s 1 -d 16 -p cbr -e 1024 -c 0 -i 15 -a 0 -x {1.0 0.0 -1 ------- null}
h -t 0.253369891664054 -s 3 -d 16 -p cbr -e 1024 -c 0 -i 16 -a 0 -x {3.0 0.2 1 ------- null}
+ -t 0.253395491664054 -s 3 -d 16 -p cbr -e 1024 -c 0 -i 16 -a 0 -x {3.0 0.2 1 ------- null}
h -t 0.253557258413546 -s 14 -d 16 -p cbr -e 1024 -c 0 -i 17 -a 0 -x {14.0 0.13 1 ------- null}
+ -t 0.253582858413546 -s 14 -d 16 -p cbr -e 1024 -c 0 -i 17 -a 0 -x {14.0 0.13 1 ------- null}
h -t 0.253854320738723 -s 4 -d 16 -p cbr -e 1024 -c 0 -i 18 -a 0 -x {4.0 0.3 1 ------- null}
+ -t 0.253879920738723 -s 4 -d 16 -p cbr -e 1024 -c 0 -i 18 -a 0 -x {4.0 0.3 1 ------- null}
r -t 0.2540232 -s 16 -d 0 -p cbr -e 1024 -c 0 -i 11 -a 0 -x {12.0 0.11 0 ------- null}
h -t 0.254352543336704 -s 13 -d 16 -p cbr -e 1024 -c 0 -i 19 -a 0 -x {13.0 0.12 1 ------- null}
+ -t 0.254378143336704 -s 13 -d 16 -p cbr -e 1024 -c 0 -i 19 -a 0 -x {13.0 0.12 1 ------- null}
h -t 0.25481428604095 -s 9 -d 16 -p cbr -e 1024 -c 0 -i 20 -a 0 -x {9.0 0.8 1 ------- null}
+ -t 0.25483988604095 -s 9 -d 16 -p cbr -e 1024 -c 0 -i 20 -a 0 -x {9.0 0.8 1 ------- null}
r -t 0.254884 -s 16 -d 0 -p cbr -e 1024 -c 0 -i 15 -a 0 -x {1.0 0.0 1 ------- null}
h -t 0.255302380513441 -s 11 -d 16 -p cbr -e 1024 -c 0 -i 21 -a 0 -x {11.0 0.10 1 ------- null}
h -t 0.255327826266626 -s 7 -d 16 -p cbr -e 1024 -c 0 -i 22 -a 0 -x {7.0 0.6 1 ------- null}
+ -t 0.255327980513441 -s 11 -d 16 -p cbr -e 1024 -c 0 -i 21 -a 0 -x {11.0 0.10 1 ------- null}
+ -t 0.255353426266626 -s 7 -d 16 -p cbr -e 1024 -c 0 -i 22 -a 0 -x {7.0 0.6 1 ------- null}
r -t 0.2557544 -s 16 -d 0 -p cbr -e 1024 -c 0 -i 5 -a 0 -x {6.0 0.5 0 ------- null}
h -t 0.256168073876593 -s 5 -d 16 -p cbr -e 1024 -c 0 -i 23 -a 0 -x {5.0 0.4 1 ------- null}
+ -t 0.256193673876593 -s 5 -d 16 -p cbr -e 1024 -c 0 -i 23 -a 0 -x {5.0 0.4 1 ------- null}
r -t 0.2567784 -s 16 -d 0 -p cbr -e 1024 -c 0 -i 9 -a 0 -x {10.0 0.9 0 ------- null}
h -t 0.256919819860265 -s 2 -d 16 -p cbr -e 1024 -c 0 -i 24 -a 0 -x {2.0 0.1 1 ------- null}
+ -t 0.256945419860265 -s 2 -d 16 -p cbr -e 1024 -c 0 -i 24 -a 0 -x {2.0 0.1 1 ------- null}
h -t 0.257132264597116 -s 4 -d 16 -p cbr -e 1024 -c 0 -i 25 -a 0 -x {4.0 0.3 2 ------- null}
+ -t 0.257157864597116 -s 4 -d 16 -p cbr -e 1024 -c 0 -i 25 -a 0 -x {4.0 0.3 2 ------- null}
h -t 0.257463666602911 -s 10 -d 16 -p cbr -e 1024 -c 0 -i 26 -a 0 -x {10.0 0.9 1 ------- null}
h -t 0.257471547410788 -s 15 -d 16 -p cbr -e 1024 -c 0 -i 27 -a 0 -x {15.0 0.14 1 ------- null}
+ -t 0.257489266602911 -s 10 -d 16 -p cbr -e 1024 -c 0 -i 26 -a 0 -x {10.0 0.9 1 ------- null}
- -t 0.257489266602911 -s 10 -d 16 -p cbr -e 1024 -c 0 -i 26 -a 0 -x {10.0 0.9 1 ------- null}
h -t 0.257489266602911 -s 10 -d 16 -p cbr -e 1024 -c 0 -i 26 -a 0 -x {10.0 0.9 -1 ------- null}
+ -t 0.257497147410788 -s 15 -d 16 -p cbr -e 1024 -c 0 -i 27 -a 0 -x {15.0 0.14 1 ------- null}
- -t 0.257497147410788 -s 15 -d 16 -p cbr -e 1024 -c 0 -i 27 -a 0 -x {15.0 0.14 1 ------- null}
h -t 0.257497147410788 -s 15 -d 16 -p cbr -e 1024 -c 0 -i 27 -a 0 -x {15.0 0.14 -1 ------- null}
- -t 0.2576024 -s 3 -d 16 -p cbr -e 1024 -c 0 -i 16 -a 0 -x {3.0 0.2 1 ------- null}
h -t 0.2576024 -s 3 -d 16 -p cbr -e 1024 -c 0 -i 16 -a 0 -x {3.0 0.2 -1 ------- null}
r -t 0.2576224 -s 16 -d 0 -p cbr -e 1024 -c 0 -i 2 -a 0 -x {3.0 0.2 0 ------- null}
h -t 0.258113042360678 -s 9 -d 16 -p cbr -e 1024 -c 0 -i 28 -a 0 -x {9.0 0.8 2 ------- null}
+ -t 0.258138642360678 -s 9 -d 16 -p cbr -e 1024 -c 0 -i 28 -a 0 -x {9.0 0.8 2 ------- null}
r -t 0.2584832 -s 16 -d 0 -p cbr -e 1024 -c 0 -i 16 -a 0 -x {3.0 0.2 1 ------- null}
h -t 0.258514145180091 -s 6 -d 16 -p cbr -e 1024 -c 0 -i 29 -a 0 -x {6.0 0.5 1 ------- null}
+ -t 0.258539745180091 -s 6 -d 16 -p cbr -e 1024 -c 0 -i 29 -a 0 -x {6.0 0.5 1 ------- null}
- -t 0.258539745180091 -s 6 -d 16 -p cbr -e 1024 -c 0 -i 29 -a 0 -x {6.0 0.5 1 ------- null}
h -t 0.258539745180091 -s 6 -d 16 -p cbr -e 1024 -c 0 -i 29 -a 0 -x {6.0 0.5 -1 ------- null}
h -t 0.258627657450603 -s 8 -d 16 -p cbr -e 1024 -c 0 -i 30 -a 0 -x {8.0 0.7 1 ------- null}
+ -t 0.258653257450603 -s 8 -d 16 -p cbr -e 1024 -c 0 -i 30 -a 0 -x {8.0 0.7 1 ------- null}
- -t 0.258653257450603 -s 8 -d 16 -p cbr -e 1024 -c 0 -i 30 -a 0 -x {8.0 0.7 1 ------- null}
h -t 0.258653257450603 -s 8 -d 16 -p cbr -e 1024 -c 0 -i 30 -a 0 -x {8.0 0.7 -1 ------- null}
h -t 0.258757729931572 -s 12 -d 16 -p cbr -e 1024 -c 0 -i 31 -a 0 -x {12.0 0.11 1 ------- null}
+ -t 0.258783329931572 -s 12 -d 16 -p cbr -e 1024 -c 0 -i 31 -a 0 -x {12.0 0.11 1 ------- null}
- -t 0.258783329931572 -s 12 -d 16 -p cbr -e 1024 -c 0 -i 31 -a 0 -x {12.0 0.11 1 ------- null}
h -t 0.258783329931572 -s 12 -d 16 -p cbr -e 1024 -c 0 -i 31 -a 0 -x {12.0 0.11 -1 ------- null}
h -t 0.258788511857502 -s 11 -d 16 -p cbr -e 1024 -c 0 -i 32 -a 0 -x {11.0 0.10 2 ------- null}
+ -t 0.258814111857502 -s 11 -d 16 -p cbr -e 1024 -c 0 -i 32 -a 0 -x {11.0 0.10 2 ------- null}
h -t 0.259219061156612 -s 1 -d 16 -p cbr -e 1024 -c 0 -i 33 -a 0 -x {1.0 0.0 2 ------- null}
+ -t 0.259244661156612 -s 1 -d 16 -p cbr -e 1024 -c 0 -i 33 -a 0 -x {1.0 0.0 2 ------- null}
- -t 0.259244661156612 -s 1 -d 16 -p cbr -e 1024 -c 0 -i 33 -a 0 -x {1.0 0.0 2 ------- null}
h -t 0.259244661156612 -s 1 -d 16 -p cbr -e 1024 -c 0 -i 33 -a 0 -x {1.0 0.0 -1 ------- null}
h -t 0.259282508580949 -s 14 -d 16 -p cbr -e 1024 -c 0 -i 34 -a 0 -x {14.0 0.13 2 ------- null}
+ -t 0.259308108580949 -s 14 -d 16 -p cbr -e 1024 -c 0 -i 34 -a 0 -x {14.0 0.13 2 ------- null}
r -t 0.259344 -s 16 -d 0 -p cbr -e 1024 -c 0 -i 26 -a 0 -x {10.0 0.9 1 ------- null}
h -t 0.259628119069794 -s 13 -d 16 -p cbr -e 1024 -c 0 -i 35 -a 0 -x {13.0 0.12 2 ------- null}
+ -t 0.259653719069794 -s 13 -d 16 -p cbr -e 1024 -c 0 -i 35 -a 0 -x {13.0 0.12 2 ------- null}
h -t 0.260225763472821 -s 3 -d 16 -p cbr -e 1024 -c 0 -i 36 -a 0 -x {3.0 0.2 2 ------- null}
+ -t 0.260251363472821 -s 3 -d 16 -p cbr -e 1024 -c 0 -i 36 -a 0 -x {3.0 0.2 2 ------- null}
- -t 0.260251363472821 -s 3 -d 16 -p cbr -e 1024 -c 0 -i 36 -a 0 -x {3.0 0.2 2 ------- null}
h -t 0.260251363472821 -s 3 -d 16 -p cbr -e 1024 -c 0 -i 36 -a 0 -x {3.0 0.2 -1 ------- null}
r -t 0.260256 -s 16 -d 0 -p cbr -e 1024 -c 0 -i 31 -a 0 -x {12.0 0.11 1 ------- null}
h -t 0.260301458959886 -s 2 -d 16 -p cbr -e 1024 -c 0 -i 37 -a 0 -x {2.0 0.1 2 ------- null}
+ -t 0.260327058959886 -s 2 -d 16 -p cbr -e 1024 -c 0 -i 37 -a 0 -x {2.0 0.1 2 ------- null}
h -t 0.260805500376813 -s 5 -d 16 -p cbr -e 1024 -c 0 -i 38 -a 0 -x {5.0 0.4 2 ------- null}
+ -t 0.260831100376813 -s 5 -d 16 -p cbr -e 1024 -c 0 -i 38 -a 0 -x {5.0 0.4 2 ------- null}
r -t 0.2611168 -s 16 -d 0 -p cbr -e 1024 -c 0 -i 36 -a 0 -x {3.0 0.2 2 ------- null}
- -t 0.2622272 -s 13 -d 16 -p cbr -e 1024 -c 0 -i 19 -a 0 -x {13.0 0.12 1 ------- null}
h -t 0.2622272 -s 13 -d 16 -p cbr -e 1024 -c 0 -i 19 -a 0 -x {13.0 0.12 -1 ------- null}
r -t 0.2622472 -s 16 -d 0 -p cbr -e 1024 -c 0 -i 12 -a 0 -x {13.0 0.12 0 ------- null}
h -t 0.262487947144083 -s 11 -d 16 -p cbr -e 1024 -c 0 -i 39 -a 0 -x {11.0 0.10 3 ------- null}
+ -t 0.262513547144083 -s 11 -d 16 -p cbr -e 1024 -c 0 -i 39 -a 0 -x {11.0 0.10 3 ------- null}
h -t 0.262918978489725 -s 15 -d 16 -p cbr -e 1024 -c 0 -i 40 -a 0 -x {15.0 0.14 2 ------- null}
h -t 0.262943292948605 -s 8 -d 16 -p cbr -e 1024 -c 0 -i 41 -a 0 -x {8.0 0.7 2 ------- null}
+ -t 0.262944578489725 -s 15 -d 16 -p cbr -e 1024 -c 0 -i 40 -a 0 -x {15.0 0.14 2 ------- null}
+ -t 0.262968892948605 -s 8 -d 16 -p cbr -e 1024 -c 0 -i 41 -a 0 -x {8.0 0.7 2 ------- null}
- -t 0.263088 -s 13 -d 16 -p cbr -e 1024 -c 0 -i 35 -a 0 -x {13.0 0.12 2 ------- null}
h -t 0.263088 -s 13 -d 16 -p cbr -e 1024 -c 0 -i 35 -a 0 -x {13.0 0.12 -1 ------- null}
r -t 0.263108 -s 16 -d 0 -p cbr -e 1024 -c 0 -i 19 -a 0 -x {13.0 0.12 1 ------- null}
h -t 0.263292087666119 -s 4 -d 16 -p cbr -e 1024 -c 0 -i 42 -a 0 -x {4.0 0.3 3 ------- null}
+ -t 0.263317687666119 -s 4 -d 16 -p cbr -e 1024 -c 0 -i 42 -a 0 -x {4.0 0.3 3 ------- null}
h -t 0.263554137420937 -s 7 -d 16 -p cbr -e 1024 -c 0 -i 43 -a 0 -x {7.0 0.6 2 ------- null}
h -t 0.263578169282452 -s 12 -d 16 -p cbr -e 1024 -c 0 -i 44 -a 0 -x {12.0 0.11 2 ------- null}
+ -t 0.263579737420937 -s 7 -d 16 -p cbr -e 1024 -c 0 -i 43 -a 0 -x {7.0 0.6 2 ------- null}
+ -t 0.263603769282452 -s 12 -d 16 -p cbr -e 1024 -c 0 -i 44 -a 0 -x {12.0 0.11 2 ------- null}
- -t 0.263603769282452 -s 12 -d 16 -p cbr -e 1024 -c 0 -i 44 -a 0 -x {12.0 0.11 2 ------- null}
h -t 0.263603769282452 -s 12 -d 16 -p cbr -e 1024 -c 0 -i 44 -a 0 -x {12.0 0.11 -1 ------- null}
h -t 0.263605845852396 -s 10 -d 16 -p cbr -e 1024 -c 0 -i 45 -a 0 -x {10.0 0.9 2 ------- null}
+ -t 0.263631445852396 -s 10 -d 16 -p cbr -e 1024 -c 0 -i 45 -a 0 -x {10.0 0.9 2 ------- null}
- -t 0.263631445852396 -s 10 -d 16 -p cbr -e 1024 -c 0 -i 45 -a 0 -x {10.0 0.9 2 ------- null}
h -t 0.263631445852396 -s 10 -d 16 -p cbr -e 1024 -c 0 -i 45 -a 0 -x {10.0 0.9 -1 ------- null}
h -t 0.263653782796246 -s 1 -d 16 -p cbr -e 1024 -c 0 -i 46 -a 0 -x {1.0 0.0 3 ------- null}
+ -t 0.263679382796246 -s 1 -d 16 -p cbr -e 1024 -c 0 -i 46 -a 0 -x {1.0 0.0 3 ------- null}
r -t 0.2639688 -s 16 -d 0 -p cbr -e 1024 -c 0 -i 35 -a 0 -x {13.0 0.12 2 ------- null}
h -t 0.26406029729042 -s 9 -d 16 -p cbr -e 1024 -c 0 -i 47 -a 0 -x {9.0 0.8 3 ------- null}
+ -t 0.26408589729042 -s 9 -d 16 -p cbr -e 1024 -c 0 -i 47 -a 0 -x {9.0 0.8 3 ------- null}
h -t 0.264405541902477 -s 13 -d 16 -p cbr -e 1024 -c 0 -i 48 -a 0 -x {13.0 0.12 3 ------- null}
+ -t 0.264431141902477 -s 13 -d 16 -p cbr -e 1024 -c 0 -i 48 -a 0 -x {13.0 0.12 3 ------- null}
- -t 0.264431141902477 -s 13 -d 16 -p cbr -e 1024 -c 0 -i 48 -a 0 -x {13.0 0.12 3 ------- null}
h -t 0.264431141902477 -s 13 -d 16 -p cbr -e 1024 -c 0 -i 48 -a 0 -x {13.0 0.12 -1 ------- null}
r -t 0.2648296 -s 16 -d 0 -p cbr -e 1024 -c 0 -i 44 -a 0 -x {12.0 0.11 2 ------- null}
- -t 0.2656704 -s 8 -d 16 -p cbr -e 1024 -c 0 -i 41 -a 0 -x {8.0 0.7 2 ------- null}
h -t 0.2656704 -s 8 -d 16 -p cbr -e 1024 -c 0 -i 41 -a 0 -x {8.0 0.7 -1 ------- null}
r -t 0.2656904 -s 16 -d 0 -p cbr -e 1024 -c 0 -i 30 -a 0 -x {8.0 0.7 1 ------- null}
h -t 0.266398226366351 -s 3 -d 16 -p cbr -e 1024 -c 0 -i 49 -a 0 -x {3.0 0.2 3 ------- null}
+ -t 0.266423826366351 -s 3 -d 16 -p cbr -e 1024 -c 0 -i 49 -a 0 -x {3.0 0.2 3 ------- null}
- -t 0.266423826366351 -s 3 -d 16 -p cbr -e 1024 -c 0 -i 49 -a 0 -x {3.0 0.2 3 ------- null}
h -t 0.266423826366351 -s 3 -d 16 -p cbr -e 1024 -c 0 -i 49 -a 0 -x {3.0 0.2 -1 ------- null}
r -t 0.266576 -s 16 -d 0 -p cbr -e 1024 -c 0 -i 29 -a 0 -x {6.0 0.5 1 ------- null}
h -t 0.267118721506224 -s 2 -d 16 -p cbr -e 1024 -c 0 -i 50 -a 0 -x {2.0 0.1 3 ------- null}
h -t 0.267127422083427 -s 12 -d 16 -p cbr -e 1024 -c 0 -i 51 -a 0 -x {12.0 0.11 3 ------- null}
+ -t 0.267144321506224 -s 2 -d 16 -p cbr -e 1024 -c 0 -i 50 -a 0 -x {2.0 0.1 3 ------- null}
+ -t 0.267153022083427 -s 12 -d 16 -p cbr -e 1024 -c 0 -i 51 -a 0 -x {12.0 0.11 3 ------- null}
- -t 0.267153022083427 -s 12 -d 16 -p cbr -e 1024 -c 0 -i 51 -a 0 -x {12.0 0.11 3 ------- null}
h -t 0.267153022083427 -s 12 -d 16 -p cbr -e 1024 -c 0 -i 51 -a 0 -x {12.0 0.11 -1 ------- null}
h -t 0.267366635333538 -s 6 -d 16 -p cbr -e 1024 -c 0 -i 52 -a 0 -x {6.0 0.5 2 ------- null}
h -t 0.267389876920967 -s 10 -d 16 -p cbr -e 1024 -c 0 -i 53 -a 0 -x {10.0 0.9 3 ------- null}
+ -t 0.267392235333538 -s 6 -d 16 -p cbr -e 1024 -c 0 -i 52 -a 0 -x {6.0 0.5 2 ------- null}
- -t 0.267392235333538 -s 6 -d 16 -p cbr -e 1024 -c 0 -i 52 -a 0 -x {6.0 0.5 2 ------- null}
h -t 0.267392235333538 -s 6 -d 16 -p cbr -e 1024 -c 0 -i 52 -a 0 -x {6.0 0.5 -1 ------- null}
+ -t 0.267415476920967 -s 10 -d 16 -p cbr -e 1024 -c 0 -i 53 -a 0 -x {10.0 0.9 3 ------- null}
r -t 0.2675048 -s 16 -d 0 -p cbr -e 1024 -c 0 -i 49 -a 0 -x {3.0 0.2 3 ------- null}
h -t 0.267590787209017 -s 5 -d 16 -p cbr -e 1024 -c 0 -i 54 -a 0 -x {5.0 0.4 3 ------- null}
+ -t 0.267616387209017 -s 5 -d 16 -p cbr -e 1024 -c 0 -i 54 -a 0 -x {5.0 0.4 3 ------- null}
h -t 0.267659730991347 -s 4 -d 16 -p cbr -e 1024 -c 0 -i 55 -a 0 -x {4.0 0.3 4 ------- null}
+ -t 0.267685330991348 -s 4 -d 16 -p cbr -e 1024 -c 0 -i 55 -a 0 -x {4.0 0.3 4 ------- null}
h -t 0.267713186246012 -s 1 -d 16 -p cbr -e 1024 -c 0 -i 56 -a 0 -x {1.0 0.0 4 ------- null}
+ -t 0.267738786246012 -s 1 -d 16 -p cbr -e 1024 -c 0 -i 56 -a 0 -x {1.0 0.0 4 ------- null}
h -t 0.268095154576582 -s 7 -d 16 -p cbr -e 1024 -c 0 -i 57 -a 0 -x {7.0 0.6 3 ------- null}
+ -t 0.268120754576582 -s 7 -d 16 -p cbr -e 1024 -c 0 -i 57 -a 0 -x {7.0 0.6 3 ------- null}
h -t 0.268246184619297 -s 11 -d 16 -p cbr -e 1024 -c 0 -i 58 -a 0 -x {11.0 0.10 4 ------- null}
h -t 0.26826975392891 -s 14 -d 16 -p cbr -e 1024 -c 0 -i 59 -a 0 -x {14.0 0.13 3 ------- null}
+ -t 0.268271784619297 -s 11 -d 16 -p cbr -e 1024 -c 0 -i 58 -a 0 -x {11.0 0.10 4 ------- null}
+ -t 0.26829535392891 -s 14 -d 16 -p cbr -e 1024 -c 0 -i 59 -a 0 -x {14.0 0.13 3 ------- null}
r -t 0.2684336 -s 16 -d 0 -p cbr -e 1024 -c 0 -i 52 -a 0 -x {6.0 0.5 2 ------- null}
r -t 0.2692944 -s 16 -d 0 -p cbr -e 1024 -c 0 -i 51 -a 0 -x {12.0 0.11 3 ------- null}
h -t 0.270204800278115 -s 15 -d 16 -p cbr -e 1024 -c 0 -i 60 -a 0 -x {15.0 0.14 3 ------- null}
+ -t 0.270230400278115 -s 15 -d 16 -p cbr -e 1024 -c 0 -i 60 -a 0 -x {15.0 0.14 3 ------- null}
- -t 0.2704376 -s 9 -d 16 -p cbr -e 1024 -c 0 -i 20 -a 0 -x {9.0 0.8 1 ------- null}
h -t 0.2704376 -s 9 -d 16 -p cbr -e 1024 -c 0 -i 20 -a 0 -x {9.0 0.8 -1 ------- null}
r -t 0.2704576 -s 16 -d 0 -p cbr -e 1024 -c 0 -i 8 -a 0 -x {9.0 0.8 0 ------- null}
h -t 0.27051559551564 -s 8 -d 16 -p cbr -e 1024 -c 0 -i 61 -a 0 -x {8.0 0.7 3 ------- null}
h -t 0.270526163033241 -s 2 -d 16 -p cbr -e 1024 -c 0 -i 62 -a 0 -x {2.0 0.1 4 ------- null}
+ -t 0.27054119551564 -s 8 -d 16 -p cbr -e 1024 -c 0 -i 61 -a 0 -x {8.0 0.7 3 ------- null}
+ -t 0.270551763033241 -s 2 -d 16 -p cbr -e 1024 -c 0 -i 62 -a 0 -x {2.0 0.1 4 ------- null}
h -t 0.27119746616939 -s 4 -d 16 -p cbr -e 1024 -c 0 -i 63 -a 0 -x {4.0 0.3 5 ------- null}
+ -t 0.27122306616939 -s 4 -d 16 -p cbr -e 1024 -c 0 -i 63 -a 0 -x {4.0 0.3 5 ------- null}
- -t 0.2712984 -s 9 -d 16 -p cbr -e 1024 -c 0 -i 28 -a 0 -x {9.0 0.8 2 ------- null}
h -t 0.2712984 -s 9 -d 16 -p cbr -e 1024 -c 0 -i 28 -a 0 -x {9.0 0.8 -1 ------- null}
r -t 0.2713184 -s 16 -d 0 -p cbr -e 1024 -c 0 -i 20 -a 0 -x {9.0 0.8 1 ------- null}
- -t 0.2721592 -s 9 -d 16 -p cbr -e 1024 -c 0 -i 47 -a 0 -x {9.0 0.8 3 ------- null}
h -t 0.2721592 -s 9 -d 16 -p cbr -e 1024 -c 0 -i 47 -a 0 -x {9.0 0.8 -1 ------- null}
r -t 0.2721792 -s 16 -d 0 -p cbr -e 1024 -c 0 -i 28 -a 0 -x {9.0 0.8 2 ------- null}
h -t 0.272324598029395 -s 13 -d 16 -p cbr -e 1024 -c 0 -i 64 -a 0 -x {13.0 0.12 4 ------- null}
+ -t 0.272350198029395 -s 13 -d 16 -p cbr -e 1024 -c 0 -i 64 -a 0 -x {13.0 0.12 4 ------- null}
h -t 0.272725538823348 -s 9 -d 16 -p cbr -e 1024 -c 0 -i 65 -a 0 -x {9.0 0.8 4 ------- null}
+ -t 0.272751138823348 -s 9 -d 16 -p cbr -e 1024 -c 0 -i 65 -a 0 -x {9.0 0.8 4 ------- null}
- -t 0.27302 -s 9 -d 16 -p cbr -e 1024 -c 0 -i 65 -a 0 -x {9.0 0.8 4 ------- null}
h -t 0.27302 -s 9 -d 16 -p cbr -e 1024 -c 0 -i 65 -a 0 -x {9.0 0.8 -1 ------- null}
r -t 0.27304 -s 16 -d 0 -p cbr -e 1024 -c 0 -i 47 -a 0 -x {9.0 0.8 3 ------- null}
h -t 0.273473810884122 -s 6 -d 16 -p cbr -e 1024 -c 0 -i 66 -a 0 -x {6.0 0.5 3 ------- null}
+ -t 0.273499410884122 -s 6 -d 16 -p cbr -e 1024 -c 0 -i 66 -a 0 -x {6.0 0.5 3 ------- null}
- -t 0.273499410884122 -s 6 -d 16 -p cbr -e 1024 -c 0 -i 66 -a 0 -x {6.0 0.5 3 ------- null}
h -t 0.273499410884122 -s 6 -d 16 -p cbr -e 1024 -c 0 -i 66 -a 0 -x {6.0 0.5 -1 ------- null}
h -t 0.273861182892323 -s 10 -d 16 -p cbr -e 1024 -c 0 -i 67 -a 0 -x {10.0 0.9 4 ------- null}
+ -t 0.273886782892323 -s 10 -d 16 -p cbr -e 1024 -c 0 -i 67 -a 0 -x {10.0 0.9 4 ------- null}
r -t 0.273952 -s 16 -d 0 -p cbr -e 1024 -c 0 -i 65 -a 0 -x {9.0 0.8 4 ------- null}
h -t 0.273997327590384 -s 5 -d 16 -p cbr -e 1024 -c 0 -i 68 -a 0 -x {5.0 0.4 4 ------- null}
+ -t 0.274022927590384 -s 5 -d 16 -p cbr -e 1024 -c 0 -i 68 -a 0 -x {5.0 0.4 4 ------- null}
h -t 0.27420724102981 -s 7 -d 16 -p cbr -e 1024 -c 0 -i 69 -a 0 -x {7.0 0.6 4 ------- null}
+ -t 0.27423284102981 -s 7 -d 16 -p cbr -e 1024 -c 0 -i 69 -a 0 -x {7.0 0.6 4 ------- null}
h -t 0.274336229526352 -s 15 -d 16 -p cbr -e 1024 -c 0 -i 70 -a 0 -x {15.0 0.14 4 ------- null}
+ -t 0.274361829526352 -s 15 -d 16 -p cbr -e 1024 -c 0 -i 70 -a 0 -x {15.0 0.14 4 ------- null}
r -t 0.274796 -s 16 -d 0 -p cbr -e 1024 -c 0 -i 66 -a 0 -x {6.0 0.5 3 ------- null}
h -t 0.274833243025458 -s 11 -d 16 -p cbr -e 1024 -c 0 -i 71 -a 0 -x {11.0 0.10 5 ------- null}
+ -t 0.274858843025458 -s 11 -d 16 -p cbr -e 1024 -c 0 -i 71 -a 0 -x {11.0 0.10 5 ------- null}
h -t 0.275019032186983 -s 12 -d 16 -p cbr -e 1024 -c 0 -i 72 -a 0 -x {12.0 0.11 4 ------- null}
+ -t 0.275044632186983 -s 12 -d 16 -p cbr -e 1024 -c 0 -i 72 -a 0 -x {12.0 0.11 4 ------- null}
- -t 0.275044632186983 -s 12 -d 16 -p cbr -e 1024 -c 0 -i 72 -a 0 -x {12.0 0.11 4 ------- null}
h -t 0.275044632186983 -s 12 -d 16 -p cbr -e 1024 -c 0 -i 72 -a 0 -x {12.0 0.11 -1 ------- null}
h -t 0.275293904212624 -s 3 -d 16 -p cbr -e 1024 -c 0 -i 73 -a 0 -x {3.0 0.2 4 ------- null}
+ -t 0.275319504212624 -s 3 -d 16 -p cbr -e 1024 -c 0 -i 73 -a 0 -x {3.0 0.2 4 ------- null}
- -t 0.275319504212624 -s 3 -d 16 -p cbr -e 1024 -c 0 -i 73 -a 0 -x {3.0 0.2 4 ------- null}
h -t 0.275319504212624 -s 3 -d 16 -p cbr -e 1024 -c 0 -i 73 -a 0 -x {3.0 0.2 -1 ------- null}
h -t 0.275757307416523 -s 14 -d 16 -p cbr -e 1024 -c 0 -i 74 -a 0 -x {14.0 0.13 4 ------- null}
+ -t 0.275782907416523 -s 14 -d 16 -p cbr -e 1024 -c 0 -i 74 -a 0 -x {14.0 0.13 4 ------- null}
r -t 0.275904632186983 -s 16 -d 0 -p cbr -e 1024 -c 0 -i 72 -a 0 -x {12.0 0.11 4 ------- null}
h -t 0.276242365910168 -s 8 -d 16 -p cbr -e 1024 -c 0 -i 75 -a 0 -x {8.0 0.7 4 ------- null}
+ -t 0.276267965910168 -s 8 -d 16 -p cbr -e 1024 -c 0 -i 75 -a 0 -x {8.0 0.7 4 ------- null}
h -t 0.276429069294454 -s 9 -d 16 -p cbr -e 1024 -c 0 -i 76 -a 0 -x {9.0 0.8 5 ------- null}
+ -t 0.276454669294454 -s 9 -d 16 -p cbr -e 1024 -c 0 -i 76 -a 0 -x {9.0 0.8 5 ------- null}
- -t 0.276454669294454 -s 9 -d 16 -p cbr -e 1024 -c 0 -i 76 -a 0 -x {9.0 0.8 5 ------- null}
h -t 0.276454669294454 -s 9 -d 16 -p cbr -e 1024 -c 0 -i 76 -a 0 -x {9.0 0.8 -1 ------- null}
r -t 0.276765432186983 -s 16 -d 0 -p cbr -e 1024 -c 0 -i 73 -a 0 -x {3.0 0.2 4 ------- null}
h -t 0.277278495414387 -s 4 -d 16 -p cbr -e 1024 -c 0 -i 77 -a 0 -x {4.0 0.3 6 ------- null}
+ -t 0.277304095414387 -s 4 -d 16 -p cbr -e 1024 -c 0 -i 77 -a 0 -x {4.0 0.3 6 ------- null}
h -t 0.277361897086212 -s 13 -d 16 -p cbr -e 1024 -c 0 -i 78 -a 0 -x {13.0 0.12 5 ------- null}
+ -t 0.277387497086212 -s 13 -d 16 -p cbr -e 1024 -c 0 -i 78 -a 0 -x {13.0 0.12 5 ------- null}
h -t 0.277460070877892 -s 1 -d 16 -p cbr -e 1024 -c 0 -i 79 -a 0 -x {1.0 0.0 5 ------- null}
+ -t 0.277485670877892 -s 1 -d 16 -p cbr -e 1024 -c 0 -i 79 -a 0 -x {1.0 0.0 5 ------- null}
r -t 0.277609432186983 -s 16 -d 0 -p cbr -e 1024 -c 0 -i 76 -a 0 -x {9.0 0.8 5 ------- null}
h -t 0.278894728718672 -s 2 -d 16 -p cbr -e 1024 -c 0 -i 80 -a 0 -x {2.0 0.1 5 ------- null}
+ -t 0.278920328718672 -s 2 -d 16 -p cbr -e 1024 -c 0 -i 80 -a 0 -x {2.0 0.1 5 ------- null}
h -t 0.279114437149112 -s 7 -d 16 -p cbr -e 1024 -c 0 -i 81 -a 0 -x {7.0 0.6 5 ------- null}
+ -t 0.279140037149112 -s 7 -d 16 -p cbr -e 1024 -c 0 -i 81 -a 0 -x {7.0 0.6 5 ------- null}
- -t 0.2794632 -s 15 -d 16 -p cbr -e 1024 -c 0 -i 40 -a 0 -x {15.0 0.14 2 ------- null}
h -t 0.2794632 -s 15 -d 16 -p cbr -e 1024 -c 0 -i 40 -a 0 -x {15.0 0.14 -1 ------- null}
r -t 0.2794832 -s 16 -d 0 -p cbr -e 1024 -c 0 -i 27 -a 0 -x {15.0 0.14 1 ------- null}
h -t 0.279850635066845 -s 6 -d 16 -p cbr -e 1024 -c 0 -i 82 -a 0 -x {6.0 0.5 4 ------- null}
+ -t 0.279876235066846 -s 6 -d 16 -p cbr -e 1024 -c 0 -i 82 -a 0 -x {6.0 0.5 4 ------- null}
- -t 0.279876235066846 -s 6 -d 16 -p cbr -e 1024 -c 0 -i 82 -a 0 -x {6.0 0.5 4 ------- null}
h -t 0.279876235066846 -s 6 -d 16 -p cbr -e 1024 -c 0 -i 82 -a 0 -x {6.0 0.5 -1 ------- null}
h -t 0.279983247983729 -s 8 -d 16 -p cbr -e 1024 -c 0 -i 83 -a 0 -x {8.0 0.7 5 ------- null}
+ -t 0.280008847983729 -s 8 -d 16 -p cbr -e 1024 -c 0 -i 83 -a 0 -x {8.0 0.7 5 ------- null}
- -t 0.2803032 -s 15 -d 16 -p cbr -e 1024 -c 0 -i 60 -a 0 -x {15.0 0.14 3 ------- null}
h -t 0.2803032 -s 15 -d 16 -p cbr -e 1024 -c 0 -i 60 -a 0 -x {15.0 0.14 -1 ------- null}
r -t 0.2803232 -s 16 -d 0 -p cbr -e 1024 -c 0 -i 40 -a 0 -x {15.0 0.14 2 ------- null}
h -t 0.280570435303121 -s 5 -d 16 -p cbr -e 1024 -c 0 -i 84 -a 0 -x {5.0 0.4 5 ------- null}
+ -t 0.280596035303121 -s 5 -d 16 -p cbr -e 1024 -c 0 -i 84 -a 0 -x {5.0 0.4 5 ------- null}
h -t 0.280726860893582 -s 3 -d 16 -p cbr -e 1024 -c 0 -i 85 -a 0 -x {3.0 0.2 5 ------- null}
+ -t 0.280752460893582 -s 3 -d 16 -p cbr -e 1024 -c 0 -i 85 -a 0 -x {3.0 0.2 5 ------- null}
- -t 0.280752460893582 -s 3 -d 16 -p cbr -e 1024 -c 0 -i 85 -a 0 -x {3.0 0.2 5 ------- null}
h -t 0.280752460893582 -s 3 -d 16 -p cbr -e 1024 -c 0 -i 85 -a 0 -x {3.0 0.2 -1 ------- null}
- -t 0.281164 -s 15 -d 16 -p cbr -e 1024 -c 0 -i 70 -a 0 -x {15.0 0.14 4 ------- null}
h -t 0.281164 -s 15 -d 16 -p cbr -e 1024 -c 0 -i 70 -a 0 -x {15.0 0.14 -1 ------- null}
r -t 0.281184 -s 16 -d 0 -p cbr -e 1024 -c 0 -i 60 -a 0 -x {15.0 0.14 3 ------- null}
h -t 0.281466021164974 -s 9 -d 16 -p cbr -e 1024 -c 0 -i 86 -a 0 -x {9.0 0.8 6 ------- null}
+ -t 0.281491621164974 -s 9 -d 16 -p cbr -e 1024 -c 0 -i 86 -a 0 -x {9.0 0.8 6 ------- null}
- -t 0.281491621164974 -s 9 -d 16 -p cbr -e 1024 -c 0 -i 86 -a 0 -x {9.0 0.8 6 ------- null}
h -t 0.281491621164974 -s 9 -d 16 -p cbr -e 1024 -c 0 -i 86 -a 0 -x {9.0 0.8 -1 ------- null}
r -t 0.28216 -s 16 -d 0 -p cbr -e 1024 -c 0 -i 70 -a 0 -x {15.0 0.14 4 ------- null}
h -t 0.282382741894184 -s 14 -d 16 -p cbr -e 1024 -c 0 -i 87 -a 0 -x {14.0 0.13 5 ------- null}
+ -t 0.282408341894184 -s 14 -d 16 -p cbr -e 1024 -c 0 -i 87 -a 0 -x {14.0 0.13 5 ------- null}
h -t 0.282788187935853 -s 4 -d 16 -p cbr -e 1024 -c 0 -i 88 -a 0 -x {4.0 0.3 7 ------- null}
+ -t 0.282813787935853 -s 4 -d 16 -p cbr -e 1024 -c 0 -i 88 -a 0 -x {4.0 0.3 7 ------- null}
r -t 0.283072 -s 16 -d 0 -p cbr -e 1024 -c 0 -i 86 -a 0 -x {9.0 0.8 6 ------- null}
h -t 0.283253454996349 -s 15 -d 16 -p cbr -e 1024 -c 0 -i 89 -a 0 -x {15.0 0.14 5 ------- null}
+ -t 0.283279054996349 -s 15 -d 16 -p cbr -e 1024 -c 0 -i 89 -a 0 -x {15.0 0.14 5 ------- null}
- -t 0.283279054996349 -s 15 -d 16 -p cbr -e 1024 -c 0 -i 89 -a 0 -x {15.0 0.14 5 ------- null}
h -t 0.283279054996349 -s 15 -d 16 -p cbr -e 1024 -c 0 -i 89 -a 0 -x {15.0 0.14 -1 ------- null}