h 0.25 1 16 cbr 1024 ------- 0 1.0 0.0 0 0
h 0.25 2 16 cbr 1024 ------- 0 2.0 0.1 0 1
h 0.25 3 16 cbr 1024 ------- 0 3.0 0.2 0 2
h 0.25 4 16 cbr 1024 ------- 0 4.0 0.3 0 3
h 0.25 5 16 cbr 1024 ------- 0 5.0 0.4 0 4
h 0.25 6 16 cbr 1024 ------- 0 6.0 0.5 0 5
h 0.25 7 16 cbr 1024 ------- 0 7.0 0.6 0 6
h 0.25 8 16 cbr 1024 ------- 0 8.0 0.7 0 7
h 0.25 9 16 cbr 1024 ------- 0 9.0 0.8 0 8
h 0.25 10 16 cbr 1024 ------- 0 10.0 0.9 0 9
h 0.25 11 16 cbr 1024 ------- 0 11.0 0.10 0 10
h 0.25 12 16 cbr 1024 ------- 0 12.0 0.11 0 11
h 0.25 13 16 cbr 1024 ------- 0 13.0 0.12 0 12
h 0.25 14 16 cbr 1024 ------- 0 14.0 0.13 0 13
h 0.25 15 16 cbr 1024 ------- 0 15.0 0.14 0 14
+ 0.250026 1 16 cbr 1024 ------- 0 1.0 0.0 0 0
- 0.250026 1 16 cbr 1024 ------- 0 1.0 0.0 0 0
+ 0.250026 2 16 cbr 1024 ------- 0 2.0 0.1 0 1
- 0.250026 2 16 cbr 1024 ------- 0 2.0 0.1 0 1
+ 0.250026 3 16 cbr 1024 ------- 0 3.0 0.2 0 2
- 0.250026 3 16 cbr 1024 ------- 0 3.0 0.2 0 2
+ 0.250026 4 16 cbr 1024 ------- 0 4.0 0.3 0 3
- 0.250026 4 16 cbr 1024 ------- 0 4.0 0.3 0 3
+ 0.250026 5 16 cbr 1024 ------- 0 5.0 0.4 0 4
- 0.250026 5 16 cbr 1024 ------- 0 5.0 0.4 0 4
+ 0.250026 6 16 cbr 1024 ------- 0 6.0 0.5 0 5
- 0.250026 6 16 cbr 1024 ------- 0 6.0 0.5 0 5
+ 0.250026 7 16 cbr 1024 ------- 0 7.0 0.6 0 6
- 0.250026 7 16 cbr 1024 ------- 0 7.0 0.6 0 6
+ 0.250026 8 16 cbr 1024 ------- 0 8.0 0.7 0 7
- 0.250026 8 16 cbr 1024 ------- 0 8.0 0.7 0 7
+ 0.250026 9 16 cbr 1024 ------- 0 9.0 0.8 0 8
- 0.250026 9 16 cbr 1024 ------- 0 9.0 0.8 0 8
+ 0.250026 10 16 cbr 1024 ------- 0 10.0 0.9 0 9
- 0.250026 10 16 cbr 1024 ------- 0 10.0 0.9 0 9
+ 0.250026 11 16 cbr 1024 ------- 0 11.0 0.10 0 10
- 0.250026 11 16 cbr 1024 ------- 0 11.0 0.10 0 10
+ 0.250026 12 16 cbr 1024 ------- 0 12.0 0.11 0 11
- 0.250026 12 16 cbr 1024 ------- 0 12.0 0.11 0 11
+ 0.250026 13 16 cbr 1024 ------- 0 13.0 0.12 0 12
- 0.250026 13 16 cbr 1024 ------- 0 13.0 0.12 0 12
+ 0.250026 14 16 cbr 1024 ------- 0 14.0 0.13 0 13
- 0.250026 14 16 cbr 1024 ------- 0 14.0 0.13 0 13
+ 0.250026 15 16 cbr 1024 ------- 0 15.0 0.14 0 14
- 0.250026 15 16 cbr 1024 ------- 0 15.0 0.14 0 14
r 0.250919 16 0 cbr 1024 ------- 0 15.0 0.14 0 14
r 0.251882 16 0 cbr 1024 ------- 0 8.0 0.7 0 7
r 0.252897 16 0 cbr 1024 ------- 0 1.0 0.0 0 0
h 0.253279 1 16 cbr 1024 ------- 0 1.0 0.0 1 15
+ 0.253305 1 16 cbr 1024 ------- 0 1.0 0.0 1 15
- 0.253305 1 16 cbr 1024 ------- 0 1.0 0.0 1 15
h 0.25337 3 16 cbr 1024 ------- 0 3.0 0.2 1 16
+ 0.253395 3 16 cbr 1024 ------- 0 3.0 0.2 1 16
h 0.253557 14 16 cbr 1024 ------- 0 14.0 0.13 1 17
+ 0.253583 14 16 cbr 1024 ------- 0 14.0 0.13 1 17
h 0.253854 4 16 cbr 1024 ------- 0 4.0 0.3 1 18
+ 0.25388 4 16 cbr 1024 ------- 0 4.0 0.3 1 18
r 0.254023 16 0 cbr 1024 ------- 0 12.0 0.11 0 11
h 0.254353 13 16 cbr 1024 ------- 0 13.0 0.12 1 19
+ 0.254378 13 16 cbr 1024 ------- 0 13.0 0.12 1 19
h 0.254814 9 16 cbr 1024 ------- 0 9.0 0.8 1 20
+ 0.25484 9 16 cbr 1024 ------- 0 9.0 0.8 1 20
r 0.254884 16 0 cbr 1024 ------- 0 1.0 0.0 1 15
h 0.255302 11 16 cbr 1024 ------- 0 11.0 0.10 1 21
h 0.255328 7 16 cbr 1024 ------- 0 7.0 0.6 1 22
+ 0.255328 11 16 cbr 1024 ------- 0 11.0 0.10 1 21
+ 0.255353 7 16 cbr 1024 ------- 0 7.0 0.6 1 22
r 0.255754 16 0 cbr 1024 ------- 0 6.0 0.5 0 5
h 0.256168 5 16 cbr 1024 ------- 0 5.0 0.4 1 23
+ 0.256194 5 16 cbr 1024 ------- 0 5.0 0.4 1 23
r 0.256778 16 0 cbr 1024 ------- 0 10.0 0.9 0 9
h 0.25692 2 16 cbr 1024 ------- 0 2.0 0.1 1 24
+ 0.256945 2 16 cbr 1024 ------- 0 2.0 0.1 1 24
h 0.257132 4 16 cbr 1024 ------- 0 4.0 0.3 2 25
+ 0.257158 4 16 cbr 1024 ------- 0 4.0 0.3 2 25
h 0.257464 10 16 cbr 1024 ------- 0 10.0 0.9 1 26
h 0.257472 15 16 cbr 1024 ------- 0 15.0 0.14 1 27
+ 0.257489 10 16 cbr 1024 ------- 0 10.0 0.9 1 26
- 0.257489 10 16 cbr 1024 ------- 0 10.0 0.9 1 26
+ 0.257497 15 16 cbr 1024 ------- 0 15.0 0.14 1 27
- 0.257497 15 16 cbr 1024 ------- 0 15.0 0.14 1 27
- 0.257602 3 16 cbr 1024 ------- 0 3.0 0.2 1 16
r 0.257622 16 0 cbr 1024 ------- 0 3.0 0.2 0 2
h 0.258113 9 16 cbr 1024 ------- 0 9.0 0.8 2 28
+ 0.258139 9 16 cbr 1024 ------- 0 9.0 0.8 2 28
r 0.258483 16 0 cbr 1024 ------- 0 3.0 0.2 1 16
h 0.258514 6 16 cbr 1024 ------- 0 6.0 0.5 1 29
+ 0.25854 6 16 cbr 1024 ------- 0 6.0 0.5 1 29
- 0.25854 6 16 cbr 1024 ------- 0 6.0 0.5 1 29
h 0.258628 8 16 cbr 1024 ------- 0 8.0 0.7 1 30
+ 0.258653 8 16 cbr 1024 ------- 0 8.0 0.7 1 30
- 0.258653 8 16 cbr 1024 ------- 0 8.0 0.7 1 30
h 0.258758 12 16 cbr 1024 ------- 0 12.0 0.11 1 31
+ 0.258783 12 16 cbr 1024 ------- 0 12.0 0.11 1 31
- 0.258783 12 16 cbr 1024 ------- 0 12.0 0.11 1 31
h 0.258789 11 16 cbr 1024 ------- 0 11.0 0.10 2 32
+ 0.258814 11 16 cbr 1024 ------- 0 11.0 0.10 2 32
h 0.259219 1 16 cbr 1024 ------- 0 1.0 0.0 2 33
+ 0.259245 1 16 cbr 1024 ------- 0 1.0 0.0 2 33
- 0.259245 1 16 cbr 1024 ------- 0 1.0 0.0 2 33
h 0.259283 14 16 cbr 1024 ------- 0 14.0 0.13 2 34
+ 0.259308 14 16 cbr 1024 ------- 0 14.0 0.13 2 34
r 0.259344 16 0 cbr 1024 ------- 0 10.0 0.9 1 26
h 0.259628 13 16 cbr 1024 ------- 0 13.0 0.12 2 35
+ 0.259654 13 16 cbr 1024 ------- 0 13.0 0.12 2 35
h 0.260226 3 16 cbr 1024 ------- 0 3.0 0.2 2 36
+ 0.260251 3 16 cbr 1024 ------- 0 3.0 0.2 2 36
- 0.260251 3 16 cbr 1024 ------- 0 3.0 0.2 2 36
r 0.260256 16 0 cbr 1024 ------- 0 12.0 0.11 1 31
h 0.260301 2 16 cbr 1024 ------- 0 2.0 0.1 2 37
+ 0.260327 2 16 cbr 1024 ------- 0 2.0 0.1 2 37
h 0.260806 5 16 cbr 1024 ------- 0 5.0 0.4 2 38
+ 0.260831 5 16 cbr 1024 ------- 0 5.0 0.4 2 38
r 0.261117 16 0 cbr 1024 ------- 0 3.0 0.2 2 36
- 0.262227 13 16 cbr 1024 ------- 0 13.0 0.12 1 19
r 0.262247 16 0 cbr 1024 ------- 0 13.0 0.12 0 12
h 0.262488 11 16 cbr 1024 ------- 0 11.0 0.10 3 39
+ 0.262514 11 16 cbr 1024 ------- 0 11.0 0.10 3 39
h 0.262919 15 16 cbr 1024 ------- 0 15.0 0.14 2 40
h 0.262943 8 16 cbr 1024 ------- 0 8.0 0.7 2 41
+ 0.262945 15 16 cbr 1024 ------- 0 15.0 0.14 2 40
+ 0.262969 8 16 cbr 1024 ------- 0 8.0 0.7 2 41
- 0.263088 13 16 cbr 1024 ------- 0 13.0 0.12 2 35
r 0.263108 16 0 cbr 1024 ------- 0 13.0 0.12 1 19
h 0.263292 4 16 cbr 1024 ------- 0 4.0 0.3 3 42
+ 0.263318 4 16 cbr 1024 ------- 0 4.0 0.3 3 42
h 0.263554 7 16 cbr 1024 ------- 0 7.0 0.6 2 43
h 0.263578 12 16 cbr 1024 ------- 0 12.0 0.11 2 44
+ 0.26358 7 16 cbr 1024 ------- 0 7.0 0.6 2 43
+ 0.263604 12 16 cbr 1024 ------- 0 12.0 0.11 2 44
- 0.263604 12 16 cbr 1024 ------- 0 12.0 0.11 2 44
h 0.263606 10 16 cbr 1024 ------- 0 10.0 0.9 2 45
+ 0.263631 10 16 cbr 1024 ------- 0 10.0 0.9 2 45
- 0.263631 10 16 cbr 1024 ------- 0 10.0 0.9 2 45
h 0.263654 1 16 cbr 1024 ------- 0 1.0 0.0 3 46
+ 0.263679 1 16 cbr 1024 ------- 0 1.0 0.0 3 46
r 0.263969 16 0 cbr 1024 ------- 0 13.0 0.12 2 35
h 0.26406 9 16 cbr 1024 ------- 0 9.0 0.8 3 47
+ 0.264086 9 16 cbr 1024 ------- 0 9.0 0.8 3 47
h 0.264406 13 16 cbr 1024 ------- 0 13.0 0.12 3 48
+ 0.264431 13 16 cbr 1024 ------- 0 13.0 0.12 3 48
- 0.264431 13 16 cbr 1024 ------- 0 13.0 0.12 3 48
r 0.26483 16 0 cbr 1024 ------- 0 12.0 0.11 2 44
- 0.26567 8 16 cbr 1024 ------- 0 8.0 0.7 2 41
r 0.26569 16 0 cbr 1024 ------- 0 8.0 0.7 1 30
h 0.266398 3 16 cbr 1024 ------- 0 3.0 0.2 3 49
+ 0.266424 3 16 cbr 1024 ------- 0 3.0 0.2 3 49
- 0.266424 3 16 cbr 1024 ------- 0 3.0 0.2 3 49
r 0.266576 16 0 cbr 1024 ------- 0 6.0 0.5 1 29
h 0.267119 2 16 cbr 1024 ------- 0 2.0 0.1 3 50
h 0.267127 12 16 cbr 1024 ------- 0 12.0 0.11 3 51
+ 0.267144 2 16 cbr 1024 ------- 0 2.0 0.1 3 50
+ 0.267153 12 16 cbr 1024 ------- 0 12.0 0.11 3 51
- 0.267153 12 16 cbr 1024 ------- 0 12.0 0.11 3 51
h 0.267367 6 16 cbr 1024 ------- 0 6.0 0.5 2 52
h 0.26739 10 16 cbr 1024 ------- 0 10.0 0.9 3 53
+ 0.267392 6 16 cbr 1024 ------- 0 6.0 0.5 2 52
- 0.267392 6 16 cbr 1024 ------- 0 6.0 0.5 2 52
+ 0.267415 10 16 cbr 1024 ------- 0 10.0 0.9 3 53
r 0.267505 16 0 cbr 1024 ------- 0 3.0 0.2 3 49
h 0.267591 5 16 cbr 1024 ------- 0 5.0 0.4 3 54
+ 0.267616 5 16 cbr 1024 ------- 0 5.0 0.4 3 54
h 0.26766 4 16 cbr 1024 ------- 0 4.0 0.3 4 55
+ 0.267685 4 16 cbr 1024 ------- 0 4.0 0.3 4 55
h 0.267713 1 16 cbr 1024 ------- 0 1.0 0.0 4 56
+ 0.267739 1 16 cbr 1024 ------- 0 1.0 0.0 4 56
h 0.268095 7 16 cbr 1024 ------- 0 7.0 0.6 3 57
+ 0.268121 7 16 cbr 1024 ------- 0 7.0 0.6 3 57
h 0.268246 11 16 cbr 1024 ------- 0 11.0 0.10 4 58
h 0.26827 14 16 cbr 1024 ------- 0 14.0 0.13 3 59
+ 0.268272 11 16 cbr 1024 ------- 0 11.0 0.10 4 58
+ 0.268295 14 16 cbr 1024 ------- 0 14.0 0.13 3 59
r 0.268434 16 0 cbr 1024 ------- 0 6.0 0.5 2 52
r 0.269294 16 0 cbr 1024 ------- 0 12.0 0.11 3 51
h 0.270205 15 16 cbr 1024 ------- 0 15.0 0.14 3 60
+ 0.27023 15 16 cbr 1024 ------- 0 15.0 0.14 3 60
- 0.270438 9 16 cbr 1024 ------- 0 9.0 0.8 1 20
r 0.270458 16 0 cbr 1024 ------- 0 9.0 0.8 0 8
h 0.270516 8 16 cbr 1024 ------- 0 8.0 0.7 3 61
h 0.270526 2 16 cbr 1024 ------- 0 2.0 0.1 4 62
+ 0.270541 8 16 cbr 1024 ------- 0 8.0 0.7 3 61
+ 0.270552 2 16 cbr 1024 ------- 0 2.0 0.1 4 62
h 0.271197 4 16 cbr 1024 ------- 0 4.0 0.3 5 63
+ 0.271223 4 16 cbr 1024 ------- 0 4.0 0.3 5 63
- 0.271298 9 16 cbr 1024 ------- 0 9.0 0.8 2 28
r 0.271318 16 0 cbr 1024 ------- 0 9.0 0.8 1 20
- 0.272159 9 16 cbr 1024 ------- 0 9.0 0.8 3 47
r 0.272179 16 0 cbr 1024 ------- 0 9.0 0.8 2 28
h 0.272325 13 16 cbr 1024 ------- 0 13.0 0.12 4 64
+ 0.27235 13 16 cbr 1024 ------- 0 13.0 0.12 4 64
h 0.272726 9 16 cbr 1024 ------- 0 9.0 0.8 4 65
+ 0.272751 9 16 cbr 1024 ------- 0 9.0 0.8 4 65
- 0.27302 9 16 cbr 1024 ------- 0 9.0 0.8 4 65
r 0.27304 16 0 cbr 1024 ------- 0 9.0 0.8 3 47
h 0.273474 6 16 cbr 1024 ------- 0 6.0 0.5 3 66
+ 0.273499 6 16 cbr 1024 ------- 0 6.0 0.5 3 66
- 0.273499 6 16 cbr 1024 ------- 0 6.0 0.5 3 66
h 0.273861 10 16 cbr 1024 ------- 0 10.0 0.9 4 67
+ 0.273887 10 16 cbr 1024 ------- 0 10.0 0.9 4 67
r 0.273952 16 0 cbr 1024 ------- 0 9.0 0.8 4 65
h 0.273997 5 16 cbr 1024 ------- 0 5.0 0.4 4 68
+ 0.274023 5 16 cbr 1024 ------- 0 5.0 0.4 4 68
h 0.274207 7 16 cbr 1024 ------- 0 7.0 0.6 4 69
+ 0.274233 7 16 cbr 1024 ------- 0 7.0 0.6 4 69
h 0.274336 15 16 cbr 1024 ------- 0 15.0 0.14 4 70
+ 0.274362 15 16 cbr 1024 ------- 0 15.0 0.14 4 70
r 0.274796 16 0 cbr 1024 ------- 0 6.0 0.5 3 66
h 0.274833 11 16 cbr 1024 ------- 0 11.0 0.10 5 71
+ 0.274859 11 16 cbr 1024 ------- 0 11.0 0.10 5 71
h 0.275019 12 16 cbr 1024 ------- 0 12.0 0.11 4 72
+ 0.275045 12 16 cbr 1024 ------- 0 12.0 0.11 4 72
- 0.275045 12 16 cbr 1024 ------- 0 12.0 0.11 4 72
h 0.275294 3 16 cbr 1024 ------- 0 3.0 0.2 4 73
+ 0.27532 3 16 cbr 1024 ------- 0 3.0 0.2 4 73
- 0.27532 3 16 cbr 1024 ------- 0 3.0 0.2 4 73
h 0.275757 14 16 cbr 1024 ------- 0 14.0 0.13 4 74
+ 0.275783 14 16 cbr 1024 ------- 0 14.0 0.13 4 74
r 0.275905 16 0 cbr 1024 ------- 0 12.0 0.11 4 72
h 0.276242 8 16 cbr 1024 ------- 0 8.0 0.7 4 75
+ 0.276268 8 16 cbr 1024 ------- 0 8.0 0.7 4 75
h 0.276429 9 16 cbr 1024 ------- 0 9.0 0.8 5 76
+ 0.276455 9 16 cbr 1024 ------- 0 9.0 0.8 5 76
- 0.276455 9 16 cbr 1024 ------- 0 9.0 0.8 5 76
r 0.276765 16 0 cbr 1024 ------- 0 3.0 0.2 4 73
h 0.277278 4 16 cbr 1024 ------- 0 4.0 0.3 6 77
+ 0.277304 4 16 cbr 1024 ------- 0 4.0 0.3 6 77
h 0.277362 13 16 cbr 1024 ------- 0 13.0 0.12 5 78
+ 0.277387 13 16 cbr 1024 ------- 0 13.0 0.12 5 78
h 0.27746 1 16 cbr 1024 ------- 0 1.0 0.0 5 79
+ 0.277486 1 16 cbr 1024 ------- 0 1.0 0.0 5 79
r 0.277609 16 0 cbr 1024 ------- 0 9.0 0.8 5 76
h 0.278895 2 16 cbr 1024 ------- 0 2.0 0.1 5 80
+ 0.27892 2 16 cbr 1024 ------- 0 2.0 0.1 5 80
h 0.279114 7 16 cbr 1024 ------- 0 7.0 0.6 5 81
+ 0.27914 7 16 cbr 1024 ------- 0 7.0 0.6 5 81
- 0.279463 15 16 cbr 1024 ------- 0 15.0 0.14 2 40
r 0.279483 16 0 cbr 1024 ------- 0 15.0 0.14 1 27
h 0.279851 6 16 cbr 1024 ------- 0 6.0 0.5 4 82
+ 0.279876 6 16 cbr 1024 ------- 0 6.0 0.5 4 82
- 0.279876 6 16 cbr 1024 ------- 0 6.0 0.5 4 82
h 0.279983 8 16 cbr 1024 ------- 0 8.0 0.7 5 83
+ 0.280009 8 16 cbr 1024 ------- 0 8.0 0.7 5 83
- 0.280303 15 16 cbr 1024 ------- 0 15.0 0.14 3 60
r 0.280323 16 0 cbr 1024 ------- 0 15.0 0.14 2 40
h 0.28057 5 16 cbr 1024 ------- 0 5.0 0.4 5 84
+ 0.280596 5 16 cbr 1024 ------- 0 5.0 0.4 5 84
h 0.280727 3 16 cbr 1024 ------- 0 3.0 0.2 5 85
+ 0.280752 3 16 cbr 1024 ------- 0 3.0 0.2 5 85
- 0.280752 3 16 cbr 1024 ------- 0 3.0 0.2 5 85
- 0.281164 15 16 cbr 1024 ------- 0 15.0 0.14 4 70
r 0.281184 16 0 cbr 1024 ------- 0 15.0 0.14 3 60
h 0.281466 9 16 cbr 1024 ------- 0 9.0 0.8 6 86
+ 0.281492 9 16 cbr 1024 ------- 0 9.0 0.8 6 86
- 0.281492 9 16 cbr 1024 ------- 0 9.0 0.8 6 86
r 0.28216 16 0 cbr 1024 ------- 0 15.0 0.14 4 70
h 0.282383 14 16 cbr 1024 ------- 0 14.0 0.13 5 87
+ 0.282408 14 16 cbr 1024 ------- 0 14.0 0.13 5 87
h 0.282788 4 16 cbr 1024 ------- 0 4.0 0.3 7 88
+ 0.282814 4 16 cbr 1024 ------- 0 4.0 0.3 7 88
r 0.283072 16 0 cbr 1024 ------- 0 9.0 0.8 6 86
h 0.283253 15 16 cbr 1024 ------- 0 15.0 0.14 5 89
+ 0.283279 15 16 cbr 1024 ------- 0 15.0 0.14 5 89
- 0.283279 15 16 cbr 1024 ------- 0 15.0 0.14 5 89
h 0.283488 8 16 cbr 1024 ------- 0 8.0 0.7 6 90
+ 0.283513 8 16 cbr 1024 ------- 0 8.0 0.7 6 90
h 0.283563 13 16 cbr 1024 ------- 0 13.0 0.12 6 91
+ 0.283589 13 16 cbr 1024 ------- 0 13.0 0.12 6 91
h 0.283609 10 16 cbr 1024 ------- 0 10.0 0.9 5 92
+ 0.283634 10 16 cbr 1024 ------- 0 10.0 0.9 5 92
- 0.283992 2 16 cbr 1024 ------- 0 2.0 0.1 1 24
r 0.284012 16 0 cbr 1024 ------- 0 2.0 0.1 0 1
h 0.284111 11 16 cbr 1024 ------- 0 11.0 0.10 6 93
+ 0.284136 11 16 cbr 1024 ------- 0 11.0 0.10 6 93
h 0.284212 12 16 cbr 1024 ------- 0 12.0 0.11 5 94
+ 0.284238 12 16 cbr 1024 ------- 0 12.0 0.11 5 94
- 0.284238 12 16 cbr 1024 ------- 0 12.0 0.11 5 94
h 0.284589 1 16 cbr 1024 ------- 0 1.0 0.0 6 95
+ 0.284614 1 16 cbr 1024 ------- 0 1.0 0.0 6 95
h 0.284774 6 16 cbr 1024 ------- 0 6.0 0.5 5 96
+ 0.2848 6 16 cbr 1024 ------- 0 6.0 0.5 5 96
- 0.284917 2 16 cbr 1024 ------- 0 2.0 0.1 2 37
r 0.284937 16 0 cbr 1024 ------- 0 2.0 0.1 1 24
- 0.285778 2 16 cbr 1024 ------- 0 2.0 0.1 3 50
r 0.285798 16 0 cbr 1024 ------- 0 2.0 0.1 2 37
h 0.286158 7 16 cbr 1024 ------- 0 7.0 0.6 6 97
+ 0.286184 7 16 cbr 1024 ------- 0 7.0 0.6 6 97
h 0.286446 2 16 cbr 1024 ------- 0 2.0 0.1 6 98
+ 0.286471 2 16 cbr 1024 ------- 0 2.0 0.1 6 98
- 0.286638 2 16 cbr 1024 ------- 0 2.0 0.1 4 62
r 0.286658 16 0 cbr 1024 ------- 0 2.0 0.1 3 50
h 0.287088 15 16 cbr 1024 ------- 0 15.0 0.14 6 99
+ 0.287113 15 16 cbr 1024 ------- 0 15.0 0.14 6 99
h 0.287211 3 16 cbr 1024 ------- 0 3.0 0.2 6 100
+ 0.287236 3 16 cbr 1024 ------- 0 3.0 0.2 6 100
h 0.287387 10 16 cbr 1024 ------- 0 10.0 0.9 6 101
+ 0.287412 10 16 cbr 1024 ------- 0 10.0 0.9 6 101
- 0.28755 2 16 cbr 1024 ------- 0 2.0 0.1 5 80
r 0.28757 16 0 cbr 1024 ------- 0 2.0 0.1 4 62
h 0.287597 9 16 cbr 1024 ------- 0 9.0 0.8 7 102
+ 0.287623 9 16 cbr 1024 ------- 0 9.0 0.8 7 102
- 0.287623 9 16 cbr 1024 ------- 0 9.0 0.8 7 102
- 0.288479 6 16 cbr 1024 ------- 0 6.0 0.5 5 96
r 0.288499 16 0 cbr 1024 ------- 0 6.0 0.5 4 82
h 0.28914 4 16 cbr 1024 ------- 0 4.0 0.3 8 103
+ 0.289166 4 16 cbr 1024 ------- 0 4.0 0.3 8 103
h 0.289325 5 16 cbr 1024 ------- 0 5.0 0.4 6 104
+ 0.289351 5 16 cbr 1024 ------- 0 5.0 0.4 6 104
r 0.28936 16 0 cbr 1024 ------- 0 6.0 0.5 5 96
h 0.289385 6 16 cbr 1024 ------- 0 6.0 0.5 6 105
+ 0.289411 6 16 cbr 1024 ------- 0 6.0 0.5 6 105
- 0.289411 6 16 cbr 1024 ------- 0 6.0 0.5 6 105
h 0.289467 14 16 cbr 1024 ------- 0 14.0 0.13 6 106
+ 0.289492 14 16 cbr 1024 ------- 0 14.0 0.13 6 106
h 0.289882 8 16 cbr 1024 ------- 0 8.0 0.7 7 107
+ 0.289908 8 16 cbr 1024 ------- 0 8.0 0.7 7 107
h 0.290017 13 16 cbr 1024 ------- 0 13.0 0.12 7 108
+ 0.290042 13 16 cbr 1024 ------- 0 13.0 0.12 7 108
h 0.29007 11 16 cbr 1024 ------- 0 11.0 0.10 7 109
+ 0.290096 11 16 cbr 1024 ------- 0 11.0 0.10 7 109
h 0.290282 2 16 cbr 1024 ------- 0 2.0 0.1 7 110
r 0.290288 16 0 cbr 1024 ------- 0 9.0 0.8 7 102
+ 0.290308 2 16 cbr 1024 ------- 0 2.0 0.1 7 110
r 0.291251 16 0 cbr 1024 ------- 0 6.0 0.5 6 105
h 0.29212 12 16 cbr 1024 ------- 0 12.0 0.11 6 111
- 0.292143 2 16 cbr 1024 ------- 0 2.0 0.1 6 98
+ 0.292146 12 16 cbr 1024 ------- 0 12.0 0.11 6 111
r 0.292163 16 0 cbr 1024 ------- 0 2.0 0.1 5 80
h 0.292453 7 16 cbr 1024 ------- 0 7.0 0.6 7 112
+ 0.292478 7 16 cbr 1024 ------- 0 7.0 0.6 7 112
h 0.292772 1 16 cbr 1024 ------- 0 1.0 0.0 7 113
+ 0.292798 1 16 cbr 1024 ------- 0 1.0 0.0 7 113
h 0.293039 14 16 cbr 1024 ------- 0 14.0 0.13 7 114
- 0.293055 2 16 cbr 1024 ------- 0 2.0 0.1 7 110
+ 0.293065 14 16 cbr 1024 ------- 0 14.0 0.13 7 114
r 0.293075 16 0 cbr 1024 ------- 0 2.0 0.1 6 98
r 0.293915 16 0 cbr 1024 ------- 0 2.0 0.1 7 110
h 0.294225 10 16 cbr 1024 ------- 0 10.0 0.9 7 115
+ 0.29425 10 16 cbr 1024 ------- 0 10.0 0.9 7 115
h 0.294264 15 16 cbr 1024 ------- 0 15.0 0.14 7 116
+ 0.29429 15 16 cbr 1024 ------- 0 15.0 0.14 7 116
h 0.294338 6 16 cbr 1024 ------- 0 6.0 0.5 7 117
+ 0.294363 6 16 cbr 1024 ------- 0 6.0 0.5 7 117
- 0.294363 6 16 cbr 1024 ------- 0 6.0 0.5 7 117
h 0.294398 9 16 cbr 1024 ------- 0 9.0 0.8 8 118
+ 0.294423 9 16 cbr 1024 ------- 0 9.0 0.8 8 118
- 0.294423 9 16 cbr 1024 ------- 0 9.0 0.8 8 118
h 0.294693 11 16 cbr 1024 ------- 0 11.0 0.10 8 119
+ 0.294718 11 16 cbr 1024 ------- 0 11.0 0.10 8 119
h 0.294813 2 16 cbr 1024 ------- 0 2.0 0.1 8 120
+ 0.294838 2 16 cbr 1024 ------- 0 2.0 0.1 8 120
- 0.294838 2 16 cbr 1024 ------- 0 2.0 0.1 8 120
r 0.295223 16 0 cbr 1024 ------- 0 6.0 0.5 7 117
h 0.29573 13 16 cbr 1024 ------- 0 13.0 0.12 8 121
h 0.295753 3 16 cbr 1024 ------- 0 3.0 0.2 7 122
+ 0.295755 13 16 cbr 1024 ------- 0 13.0 0.12 8 121
+ 0.295778 3 16 cbr 1024 ------- 0 3.0 0.2 7 122
r 0.296084 16 0 cbr 1024 ------- 0 9.0 0.8 8 118
r 0.297099 16 0 cbr 1024 ------- 0 2.0 0.1 8 120
h 0.297133 5 16 cbr 1024 ------- 0 5.0 0.4 7 123
+ 0.297159 5 16 cbr 1024 ------- 0 5.0 0.4 7 123
h 0.297805 4 16 cbr 1024 ------- 0 4.0 0.3 9 124
h 0.297819 15 16 cbr 1024 ------- 0 15.0 0.14 8 125
+ 0.29783 4 16 cbr 1024 ------- 0 4.0 0.3 9 124
+ 0.297844 15 16 cbr 1024 ------- 0 15.0 0.14 8 125
h 0.298624 7 16 cbr 1024 ------- 0 7.0 0.6 8 126
+ 0.29865 7 16 cbr 1024 ------- 0 7.0 0.6 8 126
- 0.298812 8 16 cbr 1024 ------- 0 8.0 0.7 3 61
r 0.298832 16 0 cbr 1024 ------- 0 8.0 0.7 2 41
h 0.299078 13 16 cbr 1024 ------- 0 13.0 0.12 9 127
+ 0.299104 13 16 cbr 1024 ------- 0 13.0 0.12 9 127
h 0.29916 12 16 cbr 1024 ------- 0 12.0 0.11 7 128
+ 0.299186 12 16 cbr 1024 ------- 0 12.0 0.11 7 128
h 0.29944 8 16 cbr 1024 ------- 0 8.0 0.7 8 129
+ 0.299466 8 16 cbr 1024 ------- 0 8.0 0.7 8 129
- 0.299652 8 16 cbr 1024 ------- 0 8.0 0.7 4 75
r 0.299672 16 0 cbr 1024 ------- 0 8.0 0.7 3 61
h 0.29998 2 16 cbr 1024 ------- 0 2.0 0.1 9 130
+ 0.300006 2 16 cbr 1024 ------- 0 2.0 0.1 9 130
- 0.300006 2 16 cbr 1024 ------- 0 2.0 0.1 9 130
- 0.300492 8 16 cbr 1024 ------- 0 8.0 0.7 5 83
r 0.300512 16 0 cbr 1024 ------- 0 8.0 0.7 4 75
h 0.300946 1 16 cbr 1024 ------- 0 1.0 0.0 8 131
+ 0.300972 1 16 cbr 1024 ------- 0 1.0 0.0 8 131
h 0.301335 11 16 cbr 1024 ------- 0 11.0 0.10 9 132
+ 0.30136 11 16 cbr 1024 ------- 0 11.0 0.10 9 132
- 0.301642 8 16 cbr 1024 ------- 0 8.0 0.7 6 90
h 0.30166 14 16 cbr 1024 ------- 0 14.0 0.13 8 133
r 0.301662 16 0 cbr 1024 ------- 0 8.0 0.7 5 83
+ 0.301686 14 16 cbr 1024 ------- 0 14.0 0.13 8 133
h 0.302318 6 16 cbr 1024 ------- 0 6.0 0.5 8 134
+ 0.302343 6 16 cbr 1024 ------- 0 6.0 0.5 8 134
- 0.302343 6 16 cbr 1024 ------- 0 6.0 0.5 8 134
- 0.302503 8 16 cbr 1024 ------- 0 8.0 0.7 7 107
r 0.302523 16 0 cbr 1024 ------- 0 8.0 0.7 6 90
h 0.302548 3 16 cbr 1024 ------- 0 3.0 0.2 8 135
+ 0.302574 3 16 cbr 1024 ------- 0 3.0 0.2 8 135
h 0.303148 9 16 cbr 1024 ------- 0 9.0 0.8 9 136
+ 0.303174 9 16 cbr 1024 ------- 0 9.0 0.8 9 136
- 0.303174 9 16 cbr 1024 ------- 0 9.0 0.8 9 136
h 0.303233 10 16 cbr 1024 ------- 0 10.0 0.9 8 137
+ 0.303258 10 16 cbr 1024 ------- 0 10.0 0.9 8 137
h 0.303271 15 16 cbr 1024 ------- 0 15.0 0.14 9 138
+ 0.303296 15 16 cbr 1024 ------- 0 15.0 0.14 9 138
r 0.303401 16 0 cbr 1024 ------- 0 6.0 0.5 8 134
- 0.304248 7 16 cbr 1024 ------- 0 7.0 0.6 1 22
r 0.304268 16 0 cbr 1024 ------- 0 7.0 0.6 0 6
h 0.30437 5 16 cbr 1024 ------- 0 5.0 0.4 8 139
+ 0.304396 5 16 cbr 1024 ------- 0 5.0 0.4 8 139
h 0.304504 7 16 cbr 1024 ------- 0 7.0 0.6 9 140
+ 0.304529 7 16 cbr 1024 ------- 0 7.0 0.6 9 140
h 0.305199 2 16 cbr 1024 ------- 0 2.0 0.1 10 141
+ 0.305225 2 16 cbr 1024 ------- 0 2.0 0.1 10 141
- 0.30531 8 16 cbr 1024 ------- 0 8.0 0.7 8 129
r 0.30533 16 0 cbr 1024 ------- 0 8.0 0.7 7 107
h 0.306271 4 16 cbr 1024 ------- 0 4.0 0.3 10 142
+ 0.306297 4 16 cbr 1024 ------- 0 4.0 0.3 10 142
r 0.306306 16 0 cbr 1024 ------- 0 8.0 0.7 8 129
h 0.306654 6 16 cbr 1024 ------- 0 6.0 0.5 9 143
+ 0.306679 6 16 cbr 1024 ------- 0 6.0 0.5 9 143
- 0.306679 6 16 cbr 1024 ------- 0 6.0 0.5 9 143
h 0.30674 14 16 cbr 1024 ------- 0 14.0 0.13 9 144
+ 0.306766 14 16 cbr 1024 ------- 0 14.0 0.13 9 144
- 0.307312 15 16 cbr 1024 ------- 0 15.0 0.14 6 99
r 0.307332 16 0 cbr 1024 ------- 0 15.0 0.14 5 89
h 0.307546 8 16 cbr 1024 ------- 0 8.0 0.7 9 145
+ 0.307572 8 16 cbr 1024 ------- 0 8.0 0.7 9 145
- 0.307572 8 16 cbr 1024 ------- 0 8.0 0.7 9 145
h 0.307638 9 16 cbr 1024 ------- 0 9.0 0.8 10 146
+ 0.307664 9 16 cbr 1024 ------- 0 9.0 0.8 10 146
h 0.307938 15 16 cbr 1024 ------- 0 15.0 0.14 10 147
+ 0.307963 15 16 cbr 1024 ------- 0 15.0 0.14 10 147
r 0.308189 16 0 cbr 1024 ------- 0 6.0 0.5 9 143
h 0.308209 5 16 cbr 1024 ------- 0 5.0 0.4 9 148
+ 0.308234 5 16 cbr 1024 ------- 0 5.0 0.4 9 148
h 0.308238 11 16 cbr 1024 ------- 0 11.0 0.10 10 149
+ 0.308264 11 16 cbr 1024 ------- 0 11.0 0.10 10 149
h 0.308486 12 16 cbr 1024 ------- 0 12.0 0.11 8 150
+ 0.308512 12 16 cbr 1024 ------- 0 12.0 0.11 8 150
h 0.308887 13 16 cbr 1024 ------- 0 13.0 0.12 10 151
+ 0.308913 13 16 cbr 1024 ------- 0 13.0 0.12 10 151
h 0.308998 3 16 cbr 1024 ------- 0 3.0 0.2 9 152
+ 0.309024 3 16 cbr 1024 ------- 0 3.0 0.2 9 152
r 0.309118 16 0 cbr 1024 ------- 0 8.0 0.7 9 145
h 0.309526 1 16 cbr 1024 ------- 0 1.0 0.0 9 153
+ 0.309552 1 16 cbr 1024 ------- 0 1.0 0.0 9 153
- 0.310214 15 16 cbr 1024 ------- 0 15.0 0.14 7 116
r 0.310234 16 0 cbr 1024 ------- 0 15.0 0.14 6 99
h 0.310998 4 16 cbr 1024 ------- 0 4.0 0.3 11 154
+ 0.311024 4 16 cbr 1024 ------- 0 4.0 0.3 11 154
- 0.311054 15 16 cbr 1024 ------- 0 15.0 0.14 8 125
r 0.311074 16 0 cbr 1024 ------- 0 15.0 0.14 7 116
h 0.311586 10 16 cbr 1024 ------- 0 10.0 0.9 9 155
+ 0.311611 10 16 cbr 1024 ------- 0 10.0 0.9 9 155
h 0.311924 8 16 cbr 1024 ------- 0 8.0 0.7 10 156
+ 0.31195 8 16 cbr 1024 ------- 0 8.0 0.7 10 156
- 0.31195 8 16 cbr 1024 ------- 0 8.0 0.7 10 156
- 0.311966 15 16 cbr 1024 ------- 0 15.0 0.14 9 138
r 0.311986 16 0 cbr 1024 ------- 0 15.0 0.14 8 125
h 0.312144 14 16 cbr 1024 ------- 0 14.0 0.13 10 157
+ 0.31217 14 16 cbr 1024 ------- 0 14.0 0.13 10 157
r 0.312915 16 0 cbr 1024 ------- 0 8.0 0.7 10 156
h 0.312965 7 16 cbr 1024 ------- 0 7.0 0.6 10 158
+ 0.312991 7 16 cbr 1024 ------- 0 7.0 0.6 10 158
h 0.313709 3 16 cbr 1024 ------- 0 3.0 0.2 10 159
+ 0.313734 3 16 cbr 1024 ------- 0 3.0 0.2 10 159
h 0.314049 15 16 cbr 1024 ------- 0 15.0 0.14 11 160
- 0.314063 15 16 cbr 1024 ------- 0 15.0 0.14 10 147
+ 0.314075 15 16 cbr 1024 ------- 0 15.0 0.14 11 160
r 0.314083 16 0 cbr 1024 ------- 0 15.0 0.14 9 138
h 0.314338 9 16 cbr 1024 ------- 0 9.0 0.8 11 161
+ 0.314363 9 16 cbr 1024 ------- 0 9.0 0.8 11 161
h 0.3144 11 16 cbr 1024 ------- 0 11.0 0.10 11 162
+ 0.314426 11 16 cbr 1024 ------- 0 11.0 0.10 11 162
h 0.314617 2 16 cbr 1024 ------- 0 2.0 0.1 11 163
+ 0.314642 2 16 cbr 1024 ------- 0 2.0 0.1 11 163
- 0.314975 15 16 cbr 1024 ------- 0 15.0 0.14 11 160
r 0.314995 16 0 cbr 1024 ------- 0 15.0 0.14 10 147
h 0.315069 12 16 cbr 1024 ------- 0 12.0 0.11 9 164
+ 0.315095 12 16 cbr 1024 ------- 0 12.0 0.11 9 164
h 0.315101 5 16 cbr 1024 ------- 0 5.0 0.4 10 165
+ 0.315127 5 16 cbr 1024 ------- 0 5.0 0.4 10 165
r 0.315856 16 0 cbr 1024 ------- 0 15.0 0.14 11 160
h 0.315907 6 16 cbr 1024 ------- 0 6.0 0.5 10 166
+ 0.315933 6 16 cbr 1024 ------- 0 6.0 0.5 10 166
- 0.315933 6 16 cbr 1024 ------- 0 6.0 0.5 10 166
h 0.316525 1 16 cbr 1024 ------- 0 1.0 0.0 10 167
+ 0.31655 1 16 cbr 1024 ------- 0 1.0 0.0 10 167
r 0.316793 16 0 cbr 1024 ------- 0 6.0 0.5 10 166
h 0.318191 3 16 cbr 1024 ------- 0 3.0 0.2 11 168
+ 0.318216 3 16 cbr 1024 ------- 0 3.0 0.2 11 168
h 0.318276 4 16 cbr 1024 ------- 0 4.0 0.3 12 169
+ 0.318301 4 16 cbr 1024 ------- 0 4.0 0.3 12 169
h 0.318526 12 16 cbr 1024 ------- 0 12.0 0.11 10 170
h 0.318528 13 16 cbr 1024 ------- 0 13.0 0.12 11 171
+ 0.318552 12 16 cbr 1024 ------- 0 12.0 0.11 10 170
+ 0.318554 13 16 cbr 1024 ------- 0 13.0 0.12 11 171
h 0.319349 15 16 cbr 1024 ------- 0 15.0 0.14 12 172
+ 0.319374 15 16 cbr 1024 ------- 0 15.0 0.14 12 172
- 0.319374 15 16 cbr 1024 ------- 0 15.0 0.14 12 172
- 0.319789 2 16 cbr 1024 ------- 0 2.0 0.1 10 141
r 0.319809 16 0 cbr 1024 ------- 0 2.0 0.1 9 130
h 0.320058 7 16 cbr 1024 ------- 0 7.0 0.6 11 173
+ 0.320083 7 16 cbr 1024 ------- 0 7.0 0.6 11 173
h 0.320155 10 16 cbr 1024 ------- 0 10.0 0.9 10 174
+ 0.320181 10 16 cbr 1024 ------- 0 10.0 0.9 10 174
h 0.320325 9 16 cbr 1024 ------- 0 9.0 0.8 12 175
+ 0.320351 9 16 cbr 1024 ------- 0 9.0 0.8 12 175
h 0.320374 8 16 cbr 1024 ------- 0 8.0 0.7 11 176
+ 0.3204 8 16 cbr 1024 ------- 0 8.0 0.7 11 176
- 0.3204 8 16 cbr 1024 ------- 0 8.0 0.7 11 176
h 0.320584 2 16 cbr 1024 ------- 0 2.0 0.1 12 177
+ 0.32061 2 16 cbr 1024 ------- 0 2.0 0.1 12 177
h 0.320612 6 16 cbr 1024 ------- 0 6.0 0.5 11 178
+ 0.320637 6 16 cbr 1024 ------- 0 6.0 0.5 11 178
- 0.320637 6 16 cbr 1024 ------- 0 6.0 0.5 11 178
h 0.320764 11 16 cbr 1024 ------- 0 11.0 0.10 12 179
+ 0.32079 11 16 cbr 1024 ------- 0 11.0 0.10 12 179
- 0.321093 2 16 cbr 1024 ------- 0 2.0 0.1 11 163
r 0.321113 16 0 cbr 1024 ------- 0 2.0 0.1 10 141
h 0.321351 14 16 cbr 1024 ------- 0 14.0 0.13 11 180
+ 0.321376 14 16 cbr 1024 ------- 0 14.0 0.13 11 180
r 0.322038 16 0 cbr 1024 ------- 0 8.0 0.7 11 176
h 0.322222 1 16 cbr 1024 ------- 0 1.0 0.0 11 181
+ 0.322248 1 16 cbr 1024 ------- 0 1.0 0.0 11 181
r 0.323001 16 0 cbr 1024 ------- 0 6.0 0.5 11 178
- 0.323825 2 16 cbr 1024 ------- 0 2.0 0.1 12 177
r 0.323845 16 0 cbr 1024 ------- 0 2.0 0.1 11 163
h 0.324158 5 16 cbr 1024 ------- 0 5.0 0.4 11 182
+ 0.324183 5 16 cbr 1024 ------- 0 5.0 0.4 11 182
h 0.324482 2 16 cbr 1024 ------- 0 2.0 0.1 13 183
+ 0.324508 2 16 cbr 1024 ------- 0 2.0 0.1 13 183
- 0.324737 2 16 cbr 1024 ------- 0 2.0 0.1 13 183
r 0.324757 16 0 cbr 1024 ------- 0 2.0 0.1 12 177
h 0.325175 13 16 cbr 1024 ------- 0 13.0 0.12 12 184
+ 0.325201 13 16 cbr 1024 ------- 0 13.0 0.12 12 184
h 0.325401 4 16 cbr 1024 ------- 0 4.0 0.3 13 185
+ 0.325427 4 16 cbr 1024 ------- 0 4.0 0.3 13 185
r 0.325618 16 0 cbr 1024 ------- 0 2.0 0.1 13 183
- 0.326442 1 16 cbr 1024 ------- 0 1.0 0.0 3 46
r 0.326462 16 0 cbr 1024 ------- 0 1.0 0.0 2 33
h 0.326584 15 16 cbr 1024 ------- 0 15.0 0.14 13 186
+ 0.32661 15 16 cbr 1024 ------- 0 15.0 0.14 13 186
h 0.326824 11 16 cbr 1024 ------- 0 11.0 0.10 13 187
h 0.326838 3 16 cbr 1024 ------- 0 3.0 0.2 12 188
+ 0.32685 11 16 cbr 1024 ------- 0 11.0 0.10 13 187
+ 0.326864 3 16 cbr 1024 ------- 0 3.0 0.2 12 188
- 0.327354 1 16 cbr 1024 ------- 0 1.0 0.0 4 56
r 0.327374 16 0 cbr 1024 ------- 0 1.0 0.0 3 46
h 0.327432 6 16 cbr 1024 ------- 0 6.0 0.5 12 189
+ 0.327458 6 16 cbr 1024 ------- 0 6.0 0.5 12 189
- 0.327458 6 16 cbr 1024 ------- 0 6.0 0.5 12 189
h 0.32775 5 16 cbr 1024 ------- 0 5.0 0.4 12 190
+ 0.327776 5 16 cbr 1024 ------- 0 5.0 0.4 12 190
h 0.32783 12 16 cbr 1024 ------- 0 12.0 0.11 11 191
+ 0.327856 12 16 cbr 1024 ------- 0 12.0 0.11 11 191
- 0.328194 1 16 cbr 1024 ------- 0 1.0 0.0 5 79
r 0.328214 16 0 cbr 1024 ------- 0 1.0 0.0 4 56
h 0.328728 4 16 cbr 1024 ------- 0 4.0 0.3 14 192
+ 0.328754 4 16 cbr 1024 ------- 0 4.0 0.3 14 192
h 0.328985 9 16 cbr 1024 ------- 0 9.0 0.8 13 193
+ 0.329011 9 16 cbr 1024 ------- 0 9.0 0.8 13 193
h 0.329018 2 16 cbr 1024 ------- 0 2.0 0.1 14 194
+ 0.329044 2 16 cbr 1024 ------- 0 2.0 0.1 14 194
- 0.329044 2 16 cbr 1024 ------- 0 2.0 0.1 14 194
h 0.329119 10 16 cbr 1024 ------- 0 10.0 0.9 11 195
r 0.329142 16 0 cbr 1024 ------- 0 6.0 0.5 12 189
+ 0.329145 10 16 cbr 1024 ------- 0 10.0 0.9 11 195
h 0.329284 7 16 cbr 1024 ------- 0 7.0 0.6 12 196
+ 0.329309 7 16 cbr 1024 ------- 0 7.0 0.6 12 196
h 0.329604 8 16 cbr 1024 ------- 0 8.0 0.7 12 197
+ 0.32963 8 16 cbr 1024 ------- 0 8.0 0.7 12 197
- 0.32963 8 16 cbr 1024 ------- 0 8.0 0.7 12 197
r 0.330054 16 0 cbr 1024 ------- 0 2.0 0.1 14 194
h 0.330292 14 16 cbr 1024 ------- 0 14.0 0.13 12 198
+ 0.330318 14 16 cbr 1024 ------- 0 14.0 0.13 12 198
r 0.330966 16 0 cbr 1024 ------- 0 8.0 0.7 12 197
h 0.331494 1 16 cbr 1024 ------- 0 1.0 0.0 12 199
+ 0.33152 1 16 cbr 1024 ------- 0 1.0 0.0 12 199
h 0.331688 11 16 cbr 1024 ------- 0 11.0 0.10 14 200
+ 0.331713 11 16 cbr 1024 ------- 0 11.0 0.10 14 200
- 0.33179 1 16 cbr 1024 ------- 0 1.0 0.0 6 95
r 0.33181 16 0 cbr 1024 ------- 0 1.0 0.0 5 79
- 0.33263 1 16 cbr 1024 ------- 0 1.0 0.0 7 113
r 0.33265 16 0 cbr 1024 ------- 0 1.0 0.0 6 95
h 0.332747 3 16 cbr 1024 ------- 0 3.0 0.2 13 201
+ 0.332773 3 16 cbr 1024 ------- 0 3.0 0.2 13 201
h 0.333094 6 16 cbr 1024 ------- 0 6.0 0.5 13 202
+ 0.333119 6 16 cbr 1024 ------- 0 6.0 0.5 13 202
- 0.333119 6 16 cbr 1024 ------- 0 6.0 0.5 13 202
- 0.33347 1 16 cbr 1024 ------- 0 1.0 0.0 8 131
r 0.33349 16 0 cbr 1024 ------- 0 1.0 0.0 7 113
h 0.333527 8 16 cbr 1024 ------- 0 8.0 0.7 13 203
+ 0.333553 8 16 cbr 1024 ------- 0 8.0 0.7 13 203
- 0.333553 8 16 cbr 1024 ------- 0 8.0 0.7 13 203
h 0.333791 2 16 cbr 1024 ------- 0 2.0 0.1 15 204