+ 0.25 0 3 tcp 960 ------- 0 0.0 3.0 0 0
- 0.25 0 3 tcp 960 ------- 0 0.0 3.0 0 0
+ 0.25 0 3 tcp 1000 ------- 0 0.0 3.0 1 1
+ 0.25 0 3 tcp 1000 ------- 0 0.0 3.0 2 2
+ 0.25 0 3 tcp 1000 ------- 0 0.0 3.0 3 3
+ 0.25 0 3 tcp 1000 ------- 0 0.0 3.0 4 4
+ 0.25 0 3 tcp 1000 ------- 0 0.0 3.0 5 5
+ 0.25 0 3 tcp 1000 ------- 0 0.0 3.0 6 6
+ 0.25 0 3 tcp 1000 ------- 0 0.0 3.0 7 7
+ 0.25 0 3 tcp 1000 ------- 0 0.0 3.0 8 8
+ 0.25 0 3 tcp 1000 ------- 0 0.0 3.0 9 9
+ 0.25 1 2 tcp 960 ------- 1 1.0 2.0 0 10
- 0.25 1 2 tcp 960 ------- 1 1.0 2.0 0 10
- 0.25256 0 3 tcp 1000 ------- 0 0.0 3.0 1 1
- 0.255227 0 3 tcp 1000 ------- 0 0.0 3.0 2 2
- 0.257893 0 3 tcp 1000 ------- 0 0.0 3.0 3 3
- 0.26056 0 3 tcp 1000 ------- 0 0.0 3.0 4 4
- 0.263227 0 3 tcp 1000 ------- 0 0.0 3.0 5 5
- 0.265893 0 3 tcp 1000 ------- 0 0.0 3.0 6 6
- 0.26856 0 3 tcp 1000 ------- 0 0.0 3.0 7 7
- 0.271227 0 3 tcp 1000 ------- 0 0.0 3.0 8 8
- 0.273893 0 3 tcp 1000 ------- 0 0.0 3.0 9 9
r 0.42656 0 3 tcp 960 ------- 0 0.0 3.0 0 0
+ 0.42656 3 0 ack 40 ------- 0 3.0 0.0 0 11
- 0.42656 3 0 ack 40 ------- 0 3.0 0.0 0 11
r 0.42656 1 2 tcp 960 ------- 1 1.0 2.0 0 10
+ 0.42656 2 1 ack 40 ------- 1 2.0 1.0 0 12
- 0.42656 2 1 ack 40 ------- 1 2.0 1.0 0 12
r 0.429227 0 3 tcp 1000 ------- 0 0.0 3.0 1 1
+ 0.429227 3 0 ack 40 ------- 0 3.0 0.0 1 13
- 0.429227 3 0 ack 40 ------- 0 3.0 0.0 1 13
r 0.431893 0 3 tcp 1000 ------- 0 0.0 3.0 2 2
+ 0.431893 3 0 ack 40 ------- 0 3.0 0.0 2 14
- 0.431893 3 0 ack 40 ------- 0 3.0 0.0 2 14
r 0.43456 0 3 tcp 1000 ------- 0 0.0 3.0 3 3
+ 0.43456 3 0 ack 40 ------- 0 3.0 0.0 3 15
- 0.43456 3 0 ack 40 ------- 0 3.0 0.0 3 15
r 0.437227 0 3 tcp 1000 ------- 0 0.0 3.0 4 4
+ 0.437227 3 0 ack 40 ------- 0 3.0 0.0 4 16
- 0.437227 3 0 ack 40 ------- 0 3.0 0.0 4 16
r 0.439893 0 3 tcp 1000 ------- 0 0.0 3.0 5 5
+ 0.439893 3 0 ack 40 ------- 0 3.0 0.0 5 17
- 0.439893 3 0 ack 40 ------- 0 3.0 0.0 5 17
r 0.44256 0 3 tcp 1000 ------- 0 0.0 3.0 6 6
+ 0.44256 3 0 ack 40 ------- 0 3.0 0.0 6 18
- 0.44256 3 0 ack 40 ------- 0 3.0 0.0 6 18
r 0.445227 0 3 tcp 1000 ------- 0 0.0 3.0 7 7
+ 0.445227 3 0 ack 40 ------- 0 3.0 0.0 7 19
- 0.445227 3 0 ack 40 ------- 0 3.0 0.0 7 19
r 0.447893 0 3 tcp 1000 ------- 0 0.0 3.0 8 8
+ 0.447893 3 0 ack 40 ------- 0 3.0 0.0 8 20
- 0.447893 3 0 ack 40 ------- 0 3.0 0.0 8 20
r 0.45056 0 3 tcp 1000 ------- 0 0.0 3.0 9 9
+ 0.45056 3 0 ack 40 ------- 0 3.0 0.0 9 21
- 0.45056 3 0 ack 40 ------- 0 3.0 0.0 9 21
r 0.600667 3 0 ack 40 ------- 0 3.0 0.0 0 11
+ 0.600667 0 3 tcp 1000 ------- 0 0.0 3.0 10 22
- 0.600667 0 3 tcp 1000 ------- 0 0.0 3.0 10 22
r 0.600667 2 1 ack 40 ------- 1 2.0 1.0 0 12
+ 0.600667 1 2 tcp 1000 ------- 1 1.0 2.0 1 23
- 0.600667 1 2 tcp 1000 ------- 1 1.0 2.0 1 23
r 0.603333 3 0 ack 40 ------- 0 3.0 0.0 1 13
+ 0.603333 0 3 tcp 1000 ------- 0 0.0 3.0 11 24
- 0.603333 0 3 tcp 1000 ------- 0 0.0 3.0 11 24
r 0.606 3 0 ack 40 ------- 0 3.0 0.0 2 14
+ 0.606 0 3 tcp 1000 ------- 0 0.0 3.0 12 25
- 0.606 0 3 tcp 1000 ------- 0 0.0 3.0 12 25
r 0.608667 3 0 ack 40 ------- 0 3.0 0.0 3 15
+ 0.608667 0 3 tcp 1000 ------- 0 0.0 3.0 13 26
- 0.608667 0 3 tcp 1000 ------- 0 0.0 3.0 13 26
r 0.611333 3 0 ack 40 ------- 0 3.0 0.0 4 16
+ 0.611333 0 3 tcp 1000 ------- 0 0.0 3.0 14 27
- 0.611333 0 3 tcp 1000 ------- 0 0.0 3.0 14 27
r 0.614 3 0 ack 40 ------- 0 3.0 0.0 5 17
+ 0.614 0 3 tcp 1000 ------- 0 0.0 3.0 15 28
- 0.614 0 3 tcp 1000 ------- 0 0.0 3.0 15 28
r 0.616667 3 0 ack 40 ------- 0 3.0 0.0 6 18
+ 0.616667 0 3 tcp 1000 ------- 0 0.0 3.0 16 29
- 0.616667 0 3 tcp 1000 ------- 0 0.0 3.0 16 29
r 0.619333 3 0 ack 40 ------- 0 3.0 0.0 7 19
+ 0.619333 0 3 tcp 1000 ------- 0 0.0 3.0 17 30
- 0.619333 0 3 tcp 1000 ------- 0 0.0 3.0 17 30
r 0.622 3 0 ack 40 ------- 0 3.0 0.0 8 20
+ 0.622 0 3 tcp 1000 ------- 0 0.0 3.0 18 31
- 0.622 0 3 tcp 1000 ------- 0 0.0 3.0 18 31
r 0.624667 3 0 ack 40 ------- 0 3.0 0.0 9 21
+ 0.624667 0 3 tcp 1000 ------- 0 0.0 3.0 19 32
- 0.624667 0 3 tcp 1000 ------- 0 0.0 3.0 19 32
r 0.777333 0 3 tcp 1000 ------- 0 0.0 3.0 10 22
+ 0.777333 3 0 ack 40 ------- 0 3.0 0.0 10 33
- 0.777333 3 0 ack 40 ------- 0 3.0 0.0 10 33
r 0.777333 1 2 tcp 1000 ------- 1 1.0 2.0 1 23
+ 0.777333 2 1 ack 40 ------- 1 2.0 1.0 1 34
- 0.777333 2 1 ack 40 ------- 1 2.0 1.0 1 34
r 0.78 0 3 tcp 1000 ------- 0 0.0 3.0 11 24
+ 0.78 3 0 ack 40 ------- 0 3.0 0.0 11 35
- 0.78 3 0 ack 40 ------- 0 3.0 0.0 11 35
r 0.782667 0 3 tcp 1000 ------- 0 0.0 3.0 12 25
+ 0.782667 3 0 ack 40 ------- 0 3.0 0.0 12 36
- 0.782667 3 0 ack 40 ------- 0 3.0 0.0 12 36
r 0.785333 0 3 tcp 1000 ------- 0 0.0 3.0 13 26
+ 0.785333 3 0 ack 40 ------- 0 3.0 0.0 13 37
- 0.785333 3 0 ack 40 ------- 0 3.0 0.0 13 37
r 0.788 0 3 tcp 1000 ------- 0 0.0 3.0 14 27
+ 0.788 3 0 ack 40 ------- 0 3.0 0.0 14 38
- 0.788 3 0 ack 40 ------- 0 3.0 0.0 14 38
r 0.790667 0 3 tcp 1000 ------- 0 0.0 3.0 15 28
+ 0.790667 3 0 ack 40 ------- 0 3.0 0.0 15 39
- 0.790667 3 0 ack 40 ------- 0 3.0 0.0 15 39
r 0.793333 0 3 tcp 1000 ------- 0 0.0 3.0 16 29
+ 0.793333 3 0 ack 40 ------- 0 3.0 0.0 16 40
- 0.793333 3 0 ack 40 ------- 0 3.0 0.0 16 40
r 0.796 0 3 tcp 1000 ------- 0 0.0 3.0 17 30
+ 0.796 3 0 ack 40 ------- 0 3.0 0.0 17 41
- 0.796 3 0 ack 40 ------- 0 3.0 0.0 17 41
r 0.798667 0 3 tcp 1000 ------- 0 0.0 3.0 18 31
+ 0.798667 3 0 ack 40 ------- 0 3.0 0.0 18 42
- 0.798667 3 0 ack 40 ------- 0 3.0 0.0 18 42
r 0.801333 0 3 tcp 1000 ------- 0 0.0 3.0 19 32
+ 0.801333 3 0 ack 40 ------- 0 3.0 0.0 19 43
- 0.801333 3 0 ack 40 ------- 0 3.0 0.0 19 43
r 0.95144 3 0 ack 40 ------- 0 3.0 0.0 10 33
+ 0.95144 0 3 tcp 1000 ------- 0 0.0 3.0 20 44
- 0.95144 0 3 tcp 1000 ------- 0 0.0 3.0 20 44
r 0.95144 2 1 ack 40 ------- 1 2.0 1.0 1 34
+ 0.95144 1 2 tcp 1000 ------- 1 1.0 2.0 2 45
- 0.95144 1 2 tcp 1000 ------- 1 1.0 2.0 2 45
r 0.954107 3 0 ack 40 ------- 0 3.0 0.0 11 35
+ 0.954107 0 3 tcp 1000 ------- 0 0.0 3.0 21 46
- 0.954107 0 3 tcp 1000 ------- 0 0.0 3.0 21 46
r 0.956773 3 0 ack 40 ------- 0 3.0 0.0 12 36
+ 0.956773 0 3 tcp 1000 ------- 0 0.0 3.0 22 47
- 0.956773 0 3 tcp 1000 ------- 0 0.0 3.0 22 47
r 0.95944 3 0 ack 40 ------- 0 3.0 0.0 13 37
+ 0.95944 0 3 tcp 1000 ------- 0 0.0 3.0 23 48
- 0.95944 0 3 tcp 1000 ------- 0 0.0 3.0 23 48
r 0.962107 3 0 ack 40 ------- 0 3.0 0.0 14 38
+ 0.962107 0 3 tcp 1000 ------- 0 0.0 3.0 24 49
- 0.962107 0 3 tcp 1000 ------- 0 0.0 3.0 24 49
r 0.964773 3 0 ack 40 ------- 0 3.0 0.0 15 39
+ 0.964773 0 3 tcp 1000 ------- 0 0.0 3.0 25 50
- 0.964773 0 3 tcp 1000 ------- 0 0.0 3.0 25 50
r 0.96744 3 0 ack 40 ------- 0 3.0 0.0 16 40
+ 0.96744 0 3 tcp 1000 ------- 0 0.0 3.0 26 51
- 0.96744 0 3 tcp 1000 ------- 0 0.0 3.0 26 51
r 0.970107 3 0 ack 40 ------- 0 3.0 0.0 17 41
+ 0.970107 0 3 tcp 1000 ------- 0 0.0 3.0 27 52
- 0.970107 0 3 tcp 1000 ------- 0 0.0 3.0 27 52
r 0.972773 3 0 ack 40 ------- 0 3.0 0.0 18 42
+ 0.972773 0 3 tcp 1000 ------- 0 0.0 3.0 28 53
- 0.972773 0 3 tcp 1000 ------- 0 0.0 3.0 28 53
r 0.97544 3 0 ack 40 ------- 0 3.0 0.0 19 43
+ 0.97544 0 3 tcp 1000 ------- 0 0.0 3.0 29 54
- 0.97544 0 3 tcp 1000 ------- 0 0.0 3.0 29 54
r 1.128107 0 3 tcp 1000 ------- 0 0.0 3.0 20 44
+ 1.128107 3 0 ack 40 ------- 0 3.0 0.0 20 55
- 1.128107 3 0 ack 40 ------- 0 3.0 0.0 20 55
r 1.128107 1 2 tcp 1000 ------- 1 1.0 2.0 2 45
+ 1.128107 2 1 ack 40 ------- 1 2.0 1.0 2 56
- 1.128107 2 1 ack 40 ------- 1 2.0 1.0 2 56
r 1.130773 0 3 tcp 1000 ------- 0 0.0 3.0 21 46
+ 1.130773 3 0 ack 40 ------- 0 3.0 0.0 21 57
- 1.130773 3 0 ack 40 ------- 0 3.0 0.0 21 57
r 1.13344 0 3 tcp 1000 ------- 0 0.0 3.0 22 47
+ 1.13344 3 0 ack 40 ------- 0 3.0 0.0 22 58
- 1.13344 3 0 ack 40 ------- 0 3.0 0.0 22 58
r 1.136107 0 3 tcp 1000 ------- 0 0.0 3.0 23 48
+ 1.136107 3 0 ack 40 ------- 0 3.0 0.0 23 59
- 1.136107 3 0 ack 40 ------- 0 3.0 0.0 23 59
r 1.138773 0 3 tcp 1000 ------- 0 0.0 3.0 24 49
+ 1.138773 3 0 ack 40 ------- 0 3.0 0.0 24 60
- 1.138773 3 0 ack 40 ------- 0 3.0 0.0 24 60
r 1.14144 0 3 tcp 1000 ------- 0 0.0 3.0 25 50
+ 1.14144 3 0 ack 40 ------- 0 3.0 0.0 25 61
- 1.14144 3 0 ack 40 ------- 0 3.0 0.0 25 61
r 1.144107 0 3 tcp 1000 ------- 0 0.0 3.0 26 51
+ 1.144107 3 0 ack 40 ------- 0 3.0 0.0 26 62
- 1.144107 3 0 ack 40 ------- 0 3.0 0.0 26 62
r 1.146773 0 3 tcp 1000 ------- 0 0.0 3.0 27 52
+ 1.146773 3 0 ack 40 ------- 0 3.0 0.0 27 63
- 1.146773 3 0 ack 40 ------- 0 3.0 0.0 27 63
r 1.14944 0 3 tcp 1000 ------- 0 0.0 3.0 28 53
+ 1.14944 3 0 ack 40 ------- 0 3.0 0.0 28 64
- 1.14944 3 0 ack 40 ------- 0 3.0 0.0 28 64
r 1.152107 0 3 tcp 1000 ------- 0 0.0 3.0 29 54
+ 1.152107 3 0 ack 40 ------- 0 3.0 0.0 29 65
- 1.152107 3 0 ack 40 ------- 0 3.0 0.0 29 65
r 1.302213 3 0 ack 40 ------- 0 3.0 0.0 20 55
+ 1.302213 0 3 tcp 1000 ------- 0 0.0 3.0 30 66
- 1.302213 0 3 tcp 1000 ------- 0 0.0 3.0 30 66
r 1.302213 2 1 ack 40 ------- 1 2.0 1.0 2 56
+ 1.302213 1 2 tcp 1000 ------- 1 1.0 2.0 3 67
- 1.302213 1 2 tcp 1000 ------- 1 1.0 2.0 3 67
r 1.30488 3 0 ack 40 ------- 0 3.0 0.0 21 57
+ 1.30488 0 3 tcp 1000 ------- 0 0.0 3.0 31 68
- 1.30488 0 3 tcp 1000 ------- 0 0.0 3.0 31 68
r 1.307547 3 0 ack 40 ------- 0 3.0 0.0 22 58
+ 1.307547 0 3 tcp 1000 ------- 0 0.0 3.0 32 69
- 1.307547 0 3 tcp 1000 ------- 0 0.0 3.0 32 69
r 1.310213 3 0 ack 40 ------- 0 3.0 0.0 23 59
+ 1.310213 0 3 tcp 1000 ------- 0 0.0 3.0 33 70
- 1.310213 0 3 tcp 1000 ------- 0 0.0 3.0 33 70
r 1.31288 3 0 ack 40 ------- 0 3.0 0.0 24 60
+ 1.31288 0 3 tcp 1000 ------- 0 0.0 3.0 34 71
- 1.31288 0 3 tcp 1000 ------- 0 0.0 3.0 34 71
r 1.315547 3 0 ack 40 ------- 0 3.0 0.0 25 61
+ 1.315547 0 3 tcp 1000 ------- 0 0.0 3.0 35 72
- 1.315547 0 3 tcp 1000 ------- 0 0.0 3.0 35 72
r 1.318213 3 0 ack 40 ------- 0 3.0 0.0 26 62
+ 1.318213 0 3 tcp 1000 ------- 0 0.0 3.0 36 73
- 1.318213 0 3 tcp 1000 ------- 0 0.0 3.0 36 73
r 1.32088 3 0 ack 40 ------- 0 3.0 0.0 27 63
+ 1.32088 0 3 tcp 1000 ------- 0 0.0 3.0 37 74
- 1.32088 0 3 tcp 1000 ------- 0 0.0 3.0 37 74
r 1.323547 3 0 ack 40 ------- 0 3.0 0.0 28 64
+ 1.323547 0 3 tcp 1000 ------- 0 0.0 3.0 38 75
- 1.323547 0 3 tcp 1000 ------- 0 0.0 3.0 38 75
r 1.326213 3 0 ack 40 ------- 0 3.0 0.0 29 65
+ 1.326213 0 3 tcp 1000 ------- 0 0.0 3.0 39 76
- 1.326213 0 3 tcp 1000 ------- 0 0.0 3.0 39 76
r 1.47888 0 3 tcp 1000 ------- 0 0.0 3.0 30 66
+ 1.47888 3 0 ack 40 ------- 0 3.0 0.0 30 77
- 1.47888 3 0 ack 40 ------- 0 3.0 0.0 30 77
r 1.47888 1 2 tcp 1000 ------- 1 1.0 2.0 3 67
+ 1.47888 2 1 ack 40 ------- 1 2.0 1.0 3 78
- 1.47888 2 1 ack 40 ------- 1 2.0 1.0 3 78
r 1.481547 0 3 tcp 1000 ------- 0 0.0 3.0 31 68
+ 1.481547 3 0 ack 40 ------- 0 3.0 0.0 31 79
- 1.481547 3 0 ack 40 ------- 0 3.0 0.0 31 79
r 1.484213 0 3 tcp 1000 ------- 0 0.0 3.0 32 69
+ 1.484213 3 0 ack 40 ------- 0 3.0 0.0 32 80
- 1.484213 3 0 ack 40 ------- 0 3.0 0.0 32 80
r 1.48688 0 3 tcp 1000 ------- 0 0.0 3.0 33 70
+ 1.48688 3 0 ack 40 ------- 0 3.0 0.0 33 81
- 1.48688 3 0 ack 40 ------- 0 3.0 0.0 33 81
r 1.489547 0 3 tcp 1000 ------- 0 0.0 3.0 34 71
+ 1.489547 3 0 ack 40 ------- 0 3.0 0.0 34 82
- 1.489547 3 0 ack 40 ------- 0 3.0 0.0 34 82
r 1.492213 0 3 tcp 1000 ------- 0 0.0 3.0 35 72
+ 1.492213 3 0 ack 40 ------- 0 3.0 0.0 35 83
- 1.492213 3 0 ack 40 ------- 0 3.0 0.0 35 83
r 1.49488 0 3 tcp 1000 ------- 0 0.0 3.0 36 73
+ 1.49488 3 0 ack 40 ------- 0 3.0 0.0 36 84
- 1.49488 3 0 ack 40 ------- 0 3.0 0.0 36 84
r 1.497547 0 3 tcp 1000 ------- 0 0.0 3.0 37 74
+ 1.497547 3 0 ack 40 ------- 0 3.0 0.0 37 85
- 1.497547 3 0 ack 40 ------- 0 3.0 0.0 37 85
r 1.500213 0 3 tcp 1000 ------- 0 0.0 3.0 38 75
+ 1.500213 3 0 ack 40 ------- 0 3.0 0.0 38 86
- 1.500213 3 0 ack 40 ------- 0 3.0 0.0 38 86
r 1.50288 0 3 tcp 1000 ------- 0 0.0 3.0 39 76
+ 1.50288 3 0 ack 40 ------- 0 3.0 0.0 39 87
- 1.50288 3 0 ack 40 ------- 0 3.0 0.0 39 87
r 1.652987 3 0 ack 40 ------- 0 3.0 0.0 30 77
+ 1.652987 0 3 tcp 1000 ------- 0 0.0 3.0 40 88
- 1.652987 0 3 tcp 1000 ------- 0 0.0 3.0 40 88
r 1.652987 2 1 ack 40 ------- 1 2.0 1.0 3 78
+ 1.652987 1 2 tcp 1000 ------- 1 1.0 2.0 4 89
- 1.652987 1 2 tcp 1000 ------- 1 1.0 2.0 4 89
r 1.655653 3 0 ack 40 ------- 0 3.0 0.0 31 79
+ 1.655653 0 3 tcp 1000 ------- 0 0.0 3.0 41 90
- 1.655653 0 3 tcp 1000 ------- 0 0.0 3.0 41 90
r 1.65832 3 0 ack 40 ------- 0 3.0 0.0 32 80
+ 1.65832 0 3 tcp 1000 ------- 0 0.0 3.0 42 91
- 1.65832 0 3 tcp 1000 ------- 0 0.0 3.0 42 91
r 1.660987 3 0 ack 40 ------- 0 3.0 0.0 33 81
+ 1.660987 0 3 tcp 1000 ------- 0 0.0 3.0 43 92
- 1.660987 0 3 tcp 1000 ------- 0 0.0 3.0 43 92
r 1.663653 3 0 ack 40 ------- 0 3.0 0.0 34 82
+ 1.663653 0 3 tcp 1000 ------- 0 0.0 3.0 44 93
- 1.663653 0 3 tcp 1000 ------- 0 0.0 3.0 44 93
r 1.66632 3 0 ack 40 ------- 0 3.0 0.0 35 83
+ 1.66632 0 3 tcp 1000 ------- 0 0.0 3.0 45 94
- 1.66632 0 3 tcp 1000 ------- 0 0.0 3.0 45 94
r 1.668987 3 0 ack 40 ------- 0 3.0 0.0 36 84
+ 1.668987 0 3 tcp 1000 ------- 0 0.0 3.0 46 95
- 1.668987 0 3 tcp 1000 ------- 0 0.0 3.0 46 95
r 1.671653 3 0 ack 40 ------- 0 3.0 0.0 37 85
+ 1.671653 0 3 tcp 1000 ------- 0 0.0 3.0 47 96
- 1.671653 0 3 tcp 1000 ------- 0 0.0 3.0 47 96
r 1.67432 3 0 ack 40 ------- 0 3.0 0.0 38 86
+ 1.67432 0 3 tcp 1000 ------- 0 0.0 3.0 48 97
- 1.67432 0 3 tcp 1000 ------- 0 0.0 3.0 48 97
r 1.676987 3 0 ack 40 ------- 0 3.0 0.0 39 87
+ 1.676987 0 3 tcp 1000 ------- 0 0.0 3.0 49 98
- 1.676987 0 3 tcp 1000 ------- 0 0.0 3.0 49 98
r 1.829653 0 3 tcp 1000 ------- 0 0.0 3.0 40 88
+ 1.829653 3 0 ack 40 ------- 0 3.0 0.0 40 99
- 1.829653 3 0 ack 40 ------- 0 3.0 0.0 40 99
r 1.829653 1 2 tcp 1000 ------- 1 1.0 2.0 4 89
+ 1.829653 2 1 ack 40 ------- 1 2.0 1.0 4 100
- 1.829653 2 1 ack 40 ------- 1 2.0 1.0 4 100
r 1.83232 0 3 tcp 1000 ------- 0 0.0 3.0 41 90
+ 1.83232 3 0 ack 40 ------- 0 3.0 0.0 41 101
- 1.83232 3 0 ack 40 ------- 0 3.0 0.0 41 101
r 1.834987 0 3 tcp 1000 ------- 0 0.0 3.0 42 91
+ 1.834987 3 0 ack 40 ------- 0 3.0 0.0 42 102
- 1.834987 3 0 ack 40 ------- 0 3.0 0.0 42 102
r 1.837653 0 3 tcp 1000 ------- 0 0.0 3.0 43 92
+ 1.837653 3 0 ack 40 ------- 0 3.0 0.0 43 103
- 1.837653 3 0 ack 40 ------- 0 3.0 0.0 43 103
r 1.84032 0 3 tcp 1000 ------- 0 0.0 3.0 44 93
+ 1.84032 3 0 ack 40 ------- 0 3.0 0.0 44 104
- 1.84032 3 0 ack 40 ------- 0 3.0 0.0 44 104
r 1.842987 0 3 tcp 1000 ------- 0 0.0 3.0 45 94
+ 1.842987 3 0 ack 40 ------- 0 3.0 0.0 45 105
- 1.842987 3 0 ack 40 ------- 0 3.0 0.0 45 105
r 1.845653 0 3 tcp 1000 ------- 0 0.0 3.0 46 95
+ 1.845653 3 0 ack 40 ------- 0 3.0 0.0 46 106
- 1.845653 3 0 ack 40 ------- 0 3.0 0.0 46 106
r 1.84832 0 3 tcp 1000 ------- 0 0.0 3.0 47 96
+ 1.84832 3 0 ack 40 ------- 0 3.0 0.0 47 107
- 1.84832 3 0 ack 40 ------- 0 3.0 0.0 47 107
r 1.850987 0 3 tcp 1000 ------- 0 0.0 3.0 48 97
+ 1.850987 3 0 ack 40 ------- 0 3.0 0.0 48 108
- 1.850987 3 0 ack 40 ------- 0 3.0 0.0 48 108
r 1.853653 0 3 tcp 1000 ------- 0 0.0 3.0 49 98
+ 1.853653 3 0 ack 40 ------- 0 3.0 0.0 49 109
- 1.853653 3 0 ack 40 ------- 0 3.0 0.0 49 109
r 2.00376 3 0 ack 40 ------- 0 3.0 0.0 40 99
+ 2.00376 0 3 tcp 1000 ------- 0 0.0 3.0 50 110
- 2.00376 0 3 tcp 1000 ------- 0 0.0 3.0 50 110
r 2.00376 2 1 ack 40 ------- 1 2.0 1.0 4 100
+ 2.00376 1 2 tcp 1000 ------- 1 1.0 2.0 5 111
- 2.00376 1 2 tcp 1000 ------- 1 1.0 2.0 5 111
r 2.006427 3 0 ack 40 ------- 0 3.0 0.0 41 101
+ 2.006427 0 3 tcp 1000 ------- 0 0.0 3.0 51 112
- 2.006427 0 3 tcp 1000 ------- 0 0.0 3.0 51 112
r 2.009093 3 0 ack 40 ------- 0 3.0 0.0 42 102
+ 2.009093 0 3 tcp 1000 ------- 0 0.0 3.0 52 113
- 2.009093 0 3 tcp 1000 ------- 0 0.0 3.0 52 113
r 2.01176 3 0 ack 40 ------- 0 3.0 0.0 43 103
+ 2.01176 0 3 tcp 1000 ------- 0 0.0 3.0 53 114
- 2.01176 0 3 tcp 1000 ------- 0 0.0 3.0 53 114
r 2.014427 3 0 ack 40 ------- 0 3.0 0.0 44 104
+ 2.014427 0 3 tcp 1000 ------- 0 0.0 3.0 54 115
- 2.014427 0 3 tcp 1000 ------- 0 0.0 3.0 54 115
r 2.017093 3 0 ack 40 ------- 0 3.0 0.0 45 105
+ 2.017093 0 3 tcp 1000 ------- 0 0.0 3.0 55 116
- 2.017093 0 3 tcp 1000 ------- 0 0.0 3.0 55 116
r 2.01976 3 0 ack 40 ------- 0 3.0 0.0 46 106
+ 2.01976 0 3 tcp 1000 ------- 0 0.0 3.0 56 117
- 2.01976 0 3 tcp 1000 ------- 0 0.0 3.0 56 117
r 2.022427 3 0 ack 40 ------- 0 3.0 0.0 47 107
+ 2.022427 0 3 tcp 1000 ------- 0 0.0 3.0 57 118
- 2.022427 0 3 tcp 1000 ------- 0 0.0 3.0 57 118
r 2.025093 3 0 ack 40 ------- 0 3.0 0.0 48 108
+ 2.025093 0 3 tcp 1000 ------- 0 0.0 3.0 58 119
- 2.025093 0 3 tcp 1000 ------- 0 0.0 3.0 58 119
r 2.02776 3 0 ack 40 ------- 0 3.0 0.0 49 109
+ 2.02776 0 3 tcp 1000 ------- 0 0.0 3.0 59 120
- 2.02776 0 3 tcp 1000 ------- 0 0.0 3.0 59 120
r 2.180427 0 3 tcp 1000 ------- 0 0.0 3.0 50 110
+ 2.180427 3 0 ack 40 ------- 0 3.0 0.0 50 121
- 2.180427 3 0 ack 40 ------- 0 3.0 0.0 50 121
r 2.180427 1 2 tcp 1000 ------- 1 1.0 2.0 5 111
+ 2.180427 2 1 ack 40 ------- 1 2.0 1.0 5 122
- 2.180427 2 1 ack 40 ------- 1 2.0 1.0 5 122
r 2.183093 0 3 tcp 1000 ------- 0 0.0 3.0 51 112
+ 2.183093 3 0 ack 40 ------- 0 3.0 0.0 51 123
- 2.183093 3 0 ack 40 ------- 0 3.0 0.0 51 123
r 2.18576 0 3 tcp 1000 ------- 0 0.0 3.0 52 113
+ 2.18576 3 0 ack 40 ------- 0 3.0 0.0 52 124
- 2.18576 3 0 ack 40 ------- 0 3.0 0.0 52 124
r 2.188427 0 3 tcp 1000 ------- 0 0.0 3.0 53 114
+ 2.188427 3 0 ack 40 ------- 0 3.0 0.0 53 125
- 2.188427 3 0 ack 40 ------- 0 3.0 0.0 53 125
r 2.191093 0 3 tcp 1000 ------- 0 0.0 3.0 54 115
+ 2.191093 3 0 ack 40 ------- 0 3.0 0.0 54 126
- 2.191093 3 0 ack 40 ------- 0 3.0 0.0 54 126
r 2.19376 0 3 tcp 1000 ------- 0 0.0 3.0 55 116
+ 2.19376 3 0 ack 40 ------- 0 3.0 0.0 55 127
- 2.19376 3 0 ack 40 ------- 0 3.0 0.0 55 127
r 2.196427 0 3 tcp 1000 ------- 0 0.0 3.0 56 117
+ 2.196427 3 0 ack 40 ------- 0 3.0 0.0 56 128
- 2.196427 3 0 ack 40 ------- 0 3.0 0.0 56 128
r 2.199093 0 3 tcp 1000 ------- 0 0.0 3.0 57 118
+ 2.199093 3 0 ack 40 ------- 0 3.0 0.0 57 129
- 2.199093 3 0 ack 40 ------- 0 3.0 0.0 57 129
r 2.20176 0 3 tcp 1000 ------- 0 0.0 3.0 58 119
+ 2.20176 3 0 ack 40 ------- 0 3.0 0.0 58 130
- 2.20176 3 0 ack 40 ------- 0 3.0 0.0 58 130
r 2.204427 0 3 tcp 1000 ------- 0 0.0 3.0 59 120
+ 2.204427 3 0 ack 40 ------- 0 3.0 0.0 59 131
- 2.204427 3 0 ack 40 ------- 0 3.0 0.0 59 131
r 2.354533 3 0 ack 40 ------- 0 3.0 0.0 50 121
+ 2.354533 0 3 tcp 1000 ------- 0 0.0 3.0 60 132
- 2.354533 0 3 tcp 1000 ------- 0 0.0 3.0 60 132
r 2.354533 2 1 ack 40 ------- 1 2.0 1.0 5 122
+ 2.354533 1 2 tcp 1000 ------- 1 1.0 2.0 6 133
- 2.354533 1 2 tcp 1000 ------- 1 1.0 2.0 6 133
r 2.3572 3 0 ack 40 ------- 0 3.0 0.0 51 123
+ 2.3572 0 3 tcp 1000 ------- 0 0.0 3.0 61 134
- 2.3572 0 3 tcp 1000 ------- 0 0.0 3.0 61 134
r 2.359867 3 0 ack 40 ------- 0 3.0 0.0 52 124
+ 2.359867 0 3 tcp 1000 ------- 0 0.0 3.0 62 135
- 2.359867 0 3 tcp 1000 ------- 0 0.0 3.0 62 135
r 2.362533 3 0 ack 40 ------- 0 3.0 0.0 53 125
+ 2.362533 0 3 tcp 1000 ------- 0 0.0 3.0 63 136
- 2.362533 0 3 tcp 1000 ------- 0 0.0 3.0 63 136
r 2.3652 3 0 ack 40 ------- 0 3.0 0.0 54 126
+ 2.3652 0 3 tcp 1000 ------- 0 0.0 3.0 64 137
- 2.3652 0 3 tcp 1000 ------- 0 0.0 3.0 64 137
r 2.367867 3 0 ack 40 ------- 0 3.0 0.0 55 127
+ 2.367867 0 3 tcp 1000 ------- 0 0.0 3.0 65 138
- 2.367867 0 3 tcp 1000 ------- 0 0.0 3.0 65 138
r 2.370533 3 0 ack 40 ------- 0 3.0 0.0 56 128
+ 2.370533 0 3 tcp 1000 ------- 0 0.0 3.0 66 139
- 2.370533 0 3 tcp 1000 ------- 0 0.0 3.0 66 139
r 2.3732 3 0 ack 40 ------- 0 3.0 0.0 57 129
+ 2.3732 0 3 tcp 1000 ------- 0 0.0 3.0 67 140
- 2.3732 0 3 tcp 1000 ------- 0 0.0 3.0 67 140
r 2.375867 3 0 ack 40 ------- 0 3.0 0.0 58 130
+ 2.375867 0 3 tcp 1000 ------- 0 0.0 3.0 68 141
- 2.375867 0 3 tcp 1000 ------- 0 0.0 3.0 68 141
r 2.378533 3 0 ack 40 ------- 0 3.0 0.0 59 131
+ 2.378533 0 3 tcp 1000 ------- 0 0.0 3.0 69 142
- 2.378533 0 3 tcp 1000 ------- 0 0.0 3.0 69 142
r 2.5312 0 3 tcp 1000 ------- 0 0.0 3.0 60 132
+ 2.5312 3 0 ack 40 ------- 0 3.0 0.0 60 143
- 2.5312 3 0 ack 40 ------- 0 3.0 0.0 60 143
r 2.5312 1 2 tcp 1000 ------- 1 1.0 2.0 6 133
+ 2.5312 2 1 ack 40 ------- 1 2.0 1.0 6 144
- 2.5312 2 1 ack 40 ------- 1 2.0 1.0 6 144
r 2.533867 0 3 tcp 1000 ------- 0 0.0 3.0 61 134
+ 2.533867 3 0 ack 40 ------- 0 3.0 0.0 61 145
- 2.533867 3 0 ack 40 ------- 0 3.0 0.0 61 145
r 2.536533 0 3 tcp 1000 ------- 0 0.0 3.0 62 135
+ 2.536533 3 0 ack 40 ------- 0 3.0 0.0 62 146
- 2.536533 3 0 ack 40 ------- 0 3.0 0.0 62 146
r 2.5392 0 3 tcp 1000 ------- 0 0.0 3.0 63 136
+ 2.5392 3 0 ack 40 ------- 0 3.0 0.0 63 147
- 2.5392 3 0 ack 40 ------- 0 3.0 0.0 63 147
r 2.541867 0 3 tcp 1000 ------- 0 0.0 3.0 64 137
+ 2.541867 3 0 ack 40 ------- 0 3.0 0.0 64 148
- 2.541867 3 0 ack 40 ------- 0 3.0 0.0 64 148
r 2.544533 0 3 tcp 1000 ------- 0 0.0 3.0 65 138
+ 2.544533 3 0 ack 40 ------- 0 3.0 0.0 65 149
- 2.544533 3 0 ack 40 ------- 0 3.0 0.0 65 149
r 2.5472 0 3 tcp 1000 ------- 0 0.0 3.0 66 139
+ 2.5472 3 0 ack 40 ------- 0 3.0 0.0 66 150
- 2.5472 3 0 ack 40 ------- 0 3.0 0.0 66 150
r 2.549867 0 3 tcp 1000 ------- 0 0.0 3.0 67 140
+ 2.549867 3 0 ack 40 ------- 0 3.0 0.0 67 151
- 2.549867 3 0 ack 40 ------- 0 3.0 0.0 67 151
r 2.552533 0 3 tcp 1000 ------- 0 0.0 3.0 68 141
+ 2.552533 3 0 ack 40 ------- 0 3.0 0.0 68 152
- 2.552533 3 0 ack 40 ------- 0 3.0 0.0 68 152
r 2.5552 0 3 tcp 1000 ------- 0 0.0 3.0 69 142
+ 2.5552 3 0 ack 40 ------- 0 3.0 0.0 69 153
- 2.5552 3 0 ack 40 ------- 0 3.0 0.0 69 153
r 2.705307 3 0 ack 40 ------- 0 3.0 0.0 60 143
+ 2.705307 0 3 tcp 1000 ------- 0 0.0 3.0 70 154
- 2.705307 0 3 tcp 1000 ------- 0 0.0 3.0 70 154
r 2.705307 2 1 ack 40 ------- 1 2.0 1.0 6 144
+ 2.705307 1 2 tcp 1000 ------- 1 1.0 2.0 7 155
- 2.705307 1 2 tcp 1000 ------- 1 1.0 2.0 7 155
r 2.707973 3 0 ack 40 ------- 0 3.0 0.0 61 145
+ 2.707973 0 3 tcp 1000 ------- 0 0.0 3.0 71 156
- 2.707973 0 3 tcp 1000 ------- 0 0.0 3.0 71 156
r 2.71064 3 0 ack 40 ------- 0 3.0 0.0 62 146
+ 2.71064 0 3 tcp 1000 ------- 0 0.0 3.0 72 157
- 2.71064 0 3 tcp 1000 ------- 0 0.0 3.0 72 157
r 2.713307 3 0 ack 40 ------- 0 3.0 0.0 63 147
+ 2.713307 0 3 tcp 1000 ------- 0 0.0 3.0 73 158
- 2.713307 0 3 tcp 1000 ------- 0 0.0 3.0 73 158
r 2.715973 3 0 ack 40 ------- 0 3.0 0.0 64 148
+ 2.715973 0 3 tcp 1000 ------- 0 0.0 3.0 74 159
- 2.715973 0 3 tcp 1000 ------- 0 0.0 3.0 74 159
r 2.71864 3 0 ack 40 ------- 0 3.0 0.0 65 149
+ 2.71864 0 3 tcp 1000 ------- 0 0.0 3.0 75 160
- 2.71864 0 3 tcp 1000 ------- 0 0.0 3.0 75 160
r 2.721307 3 0 ack 40 ------- 0 3.0 0.0 66 150
+ 2.721307 0 3 tcp 1000 ------- 0 0.0 3.0 76 161
- 2.721307 0 3 tcp 1000 ------- 0 0.0 3.0 76 161
r 2.723973 3 0 ack 40 ------- 0 3.0 0.0 67 151
+ 2.723973 0 3 tcp 1000 ------- 0 0.0 3.0 77 162
- 2.723973 0 3 tcp 1000 ------- 0 0.0 3.0 77 162
r 2.72664 3 0 ack 40 ------- 0 3.0 0.0 68 152
+ 2.72664 0 3 tcp 1000 ------- 0 0.0 3.0 78 163
- 2.72664 0 3 tcp 1000 ------- 0 0.0 3.0 78 163
r 2.729307 3 0 ack 40 ------- 0 3.0 0.0 69 153
+ 2.729307 0 3 tcp 1000 ------- 0 0.0 3.0 79 164
- 2.729307 0 3 tcp 1000 ------- 0 0.0 3.0 79 164
r 2.881973 0 3 tcp 1000 ------- 0 0.0 3.0 70 154
+ 2.881973 3 0 ack 40 ------- 0 3.0 0.0 70 165
- 2.881973 3 0 ack 40 ------- 0 3.0 0.0 70 165
r 2.881973 1 2 tcp 1000 ------- 1 1.0 2.0 7 155
+ 2.881973 2 1 ack 40 ------- 1 2.0 1.0 7 166
- 2.881973 2 1 ack 40 ------- 1 2.0 1.0 7 166
r 2.88464 0 3 tcp 1000 ------- 0 0.0 3.0 71 156
+ 2.88464 3 0 ack 40 ------- 0 3.0 0.0 71 167
- 2.88464 3 0 ack 40 ------- 0 3.0 0.0 71 167
r 2.887307 0 3 tcp 1000 ------- 0 0.0 3.0 72 157
+ 2.887307 3 0 ack 40 ------- 0 3.0 0.0 72 168
- 2.887307 3 0 ack 40 ------- 0 3.0 0.0 72 168
r 2.889973 0 3 tcp 1000 ------- 0 0.0 3.0 73 158
+ 2.889973 3 0 ack 40 ------- 0 3.0 0.0 73 169
- 2.889973 3 0 ack 40 ------- 0 3.0 0.0 73 169
r 2.89264 0 3 tcp 1000 ------- 0 0.0 3.0 74 159
+ 2.89264 3 0 ack 40 ------- 0 3.0 0.0 74 170
- 2.89264 3 0 ack 40 ------- 0 3.0 0.0 74 170
r 2.895307 0 3 tcp 1000 ------- 0 0.0 3.0 75 160
+ 2.895307 3 0 ack 40 ------- 0 3.0 0.0 75 171
- 2.895307 3 0 ack 40 ------- 0 3.0 0.0 75 171
r 2.897973 0 3 tcp 1000 ------- 0 0.0 3.0 76 161
+ 2.897973 3 0 ack 40 ------- 0 3.0 0.0 76 172
- 2.897973 3 0 ack 40 ------- 0 3.0 0.0 76 172
r 2.90064 0 3 tcp 1000 ------- 0 0.0 3.0 77 162
+ 2.90064 3 0 ack 40 ------- 0 3.0 0.0 77 173
- 2.90064 3 0 ack 40 ------- 0 3.0 0.0 77 173
r 2.903307 0 3 tcp 1000 ------- 0 0.0 3.0 78 163
+ 2.903307 3 0 ack 40 ------- 0 3.0 0.0 78 174
- 2.903307 3 0 ack 40 ------- 0 3.0 0.0 78 174
r 2.905973 0 3 tcp 1000 ------- 0 0.0 3.0 79 164
+ 2.905973 3 0 ack 40 ------- 0 3.0 0.0 79 175
- 2.905973 3 0 ack 40 ------- 0 3.0 0.0 79 175
r 3.05608 3 0 ack 40 ------- 0 3.0 0.0 70 165
+ 3.05608 0 3 tcp 1000 ------- 0 0.0 3.0 80 176
- 3.05608 0 3 tcp 1000 ------- 0 0.0 3.0 80 176
r 3.05608 2 1 ack 40 ------- 1 2.0 1.0 7 166
+ 3.05608 1 2 tcp 1000 ------- 1 1.0 2.0 8 177
- 3.05608 1 2 tcp 1000 ------- 1 1.0 2.0 8 177
r 3.058747 3 0 ack 40 ------- 0 3.0 0.0 71 167
+ 3.058747 0 3 tcp 1000 ------- 0 0.0 3.0 81 178
- 3.058747 0 3 tcp 1000 ------- 0 0.0 3.0 81 178
r 3.061413 3 0 ack 40 ------- 0 3.0 0.0 72 168
+ 3.061413 0 3 tcp 1000 ------- 0 0.0 3.0 82 179
- 3.061413 0 3 tcp 1000 ------- 0 0.0 3.0 82 179
r 3.06408 3 0 ack 40 ------- 0 3.0 0.0 73 169
+ 3.06408 0 3 tcp 1000 ------- 0 0.0 3.0 83 180
- 3.06408 0 3 tcp 1000 ------- 0 0.0 3.0 83 180
r 3.066747 3 0 ack 40 ------- 0 3.0 0.0 74 170
+ 3.066747 0 3 tcp 1000 ------- 0 0.0 3.0 84 181
- 3.066747 0 3 tcp 1000 ------- 0 0.0 3.0 84 181
r 3.069413 3 0 ack 40 ------- 0 3.0 0.0 75 171
+ 3.069413 0 3 tcp 1000 ------- 0 0.0 3.0 85 182
- 3.069413 0 3 tcp 1000 ------- 0 0.0 3.0 85 182
r 3.07208 3 0 ack 40 ------- 0 3.0 0.0 76 172
+ 3.07208 0 3 tcp 1000 ------- 0 0.0 3.0 86 183
- 3.07208 0 3 tcp 1000 ------- 0 0.0 3.0 86 183
r 3.074747 3 0 ack 40 ------- 0 3.0 0.0 77 173
+ 3.074747 0 3 tcp 1000 ------- 0 0.0 3.0 87 184
- 3.074747 0 3 tcp 1000 ------- 0 0.0 3.0 87 184
r 3.077413 3 0 ack 40 ------- 0 3.0 0.0 78 174
+ 3.077413 0 3 tcp 1000 ------- 0 0.0 3.0 88 185
- 3.077413 0 3 tcp 1000 ------- 0 0.0 3.0 88 185
r 3.08008 3 0 ack 40 ------- 0 3.0 0.0 79 175
+ 3.08008 0 3 tcp 1000 ------- 0 0.0 3.0 89 186
- 3.08008 0 3 tcp 1000 ------- 0 0.0 3.0 89 186
r 3.232747 0 3 tcp 1000 ------- 0 0.0 3.0 80 176
+ 3.232747 3 0 ack 40 ------- 0 3.0 0.0 80 187
- 3.232747 3 0 ack 40 ------- 0 3.0 0.0 80 187
r 3.232747 1 2 tcp 1000 ------- 1 1.0 2.0 8 177
+ 3.232747 2 1 ack 40 ------- 1 2.0 1.0 8 188
- 3.232747 2 1 ack 40 ------- 1 2.0 1.0 8 188
r 3.235413 0 3 tcp 1000 ------- 0 0.0 3.0 81 178
+ 3.235413 3 0 ack 40 ------- 0 3.0 0.0 81 189
- 3.235413 3 0 ack 40 ------- 0 3.0 0.0 81 189
r 3.23808 0 3 tcp 1000 ------- 0 0.0 3.0 82 179
+ 3.23808 3 0 ack 40 ------- 0 3.0 0.0 82 190
- 3.23808 3 0 ack 40 ------- 0 3.0 0.0 82 190
r 3.240747 0 3 tcp 1000 ------- 0 0.0 3.0 83 180
+ 3.240747 3 0 ack 40 ------- 0 3.0 0.0 83 191
- 3.240747 3 0 ack 40 ------- 0 3.0 0.0 83 191
r 3.243413 0 3 tcp 1000 ------- 0 0.0 3.0 84 181
+ 3.243413 3 0 ack 40 ------- 0 3.0 0.0 84 192
- 3.243413 3 0 ack 40 ------- 0 3.0 0.0 84 192
r 3.24608 0 3 tcp 1000 ------- 0 0.0 3.0 85 182
+ 3.24608 3 0 ack 40 ------- 0 3.0 0.0 85 193
- 3.24608 3 0 ack 40 ------- 0 3.0 0.0 85 193
r 3.248747 0 3 tcp 1000 ------- 0 0.0 3.0 86 183
+ 3.248747 3 0 ack 40 ------- 0 3.0 0.0 86 194
- 3.248747 3 0 ack 40 ------- 0 3.0 0.0 86 194
r 3.251413 0 3 tcp 1000 ------- 0 0.0 3.0 87 184
+ 3.251413 3 0 ack 40 ------- 0 3.0 0.0 87 195
- 3.251413 3 0 ack 40 ------- 0 3.0 0.0 87 195
r 3.25408 0 3 tcp 1000 ------- 0 0.0 3.0 88 185
+ 3.25408 3 0 ack 40 ------- 0 3.0 0.0 88 196
- 3.25408 3 0 ack 40 ------- 0 3.0 0.0 88 196
r 3.256747 0 3 tcp 1000 ------- 0 0.0 3.0 89 186
+ 3.256747 3 0 ack 40 ------- 0 3.0 0.0 89 197
- 3.256747 3 0 ack 40 ------- 0 3.0 0.0 89 197
r 3.406853 3 0 ack 40 ------- 0 3.0 0.0 80 187
+ 3.406853 0 3 tcp 1000 ------- 0 0.0 3.0 90 198
- 3.406853 0 3 tcp 1000 ------- 0 0.0 3.0 90 198
r 3.406853 2 1 ack 40 ------- 1 2.0 1.0 8 188
+ 3.406853 1 2 tcp 1000 ------- 1 1.0 2.0 9 199
- 3.406853 1 2 tcp 1000 ------- 1 1.0 2.0 9 199
r 3.40952 3 0 ack 40 ------- 0 3.0 0.0 81 189
+ 3.40952 0 3 tcp 1000 ------- 0 0.0 3.0 91 200
- 3.40952 0 3 tcp 1000 ------- 0 0.0 3.0 91 200
r 3.412187 3 0 ack 40 ------- 0 3.0 0.0 82 190
+ 3.412187 0 3 tcp 1000 ------- 0 0.0 3.0 92 201
- 3.412187 0 3 tcp 1000 ------- 0 0.0 3.0 92 201
r 3.414853 3 0 ack 40 ------- 0 3.0 0.0 83 191
+ 3.414853 0 3 tcp 1000 ------- 0 0.0 3.0 93 202
- 3.414853 0 3 tcp 1000 ------- 0 0.0 3.0 93 202
r 3.41752 3 0 ack 40 ------- 0 3.0 0.0 84 192
+ 3.41752 0 3 tcp 1000 ------- 0 0.0 3.0 94 203
- 3.41752 0 3 tcp 1000 ------- 0 0.0 3.0 94 203
r 3.420187 3 0 ack 40 ------- 0 3.0 0.0 85 193
+ 3.420187 0 3 tcp 1000 ------- 0 0.0 3.0 95 204
- 3.420187 0 3 tcp 1000 ------- 0 0.0 3.0 95 204
r 3.422853 3 0 ack 40 ------- 0 3.0 0.0 86 194
+ 3.422853 0 3 tcp 1000 ------- 0 0.0 3.0 96 205
- 3.422853 0 3 tcp 1000 ------- 0 0.0 3.0 96 205
r 3.42552 3 0 ack 40 ------- 0 3.0 0.0 87 195
+ 3.42552 0 3 tcp 1000 ------- 0 0.0 3.0 97 206
- 3.42552 0 3 tcp 1000 ------- 0 0.0 3.0 97 206
r 3.428187 3 0 ack 40 ------- 0 3.0 0.0 88 196
+ 3.428187 0 3 tcp 1000 ------- 0 0.0 3.0 98 207
- 3.428187 0 3 tcp 1000 ------- 0 0.0 3.0 98 207
r 3.430853 3 0 ack 40 ------- 0 3.0 0.0 89 197
+ 3.430853 0 3 tcp 1000 ------- 0 0.0 3.0 99 208
- 3.430853 0 3 tcp 1000 ------- 0 0.0 3.0 99 208
r 3.58352 0 3 tcp 1000 ------- 0 0.0 3.0 90 198
+ 3.58352 3 0 ack 40 ------- 0 3.0 0.0 90 209
- 3.58352 3 0 ack 40 ------- 0 3.0 0.0 90 209
r 3.58352 1 2 tcp 1000 ------- 1 1.0 2.0 9 199
+ 3.58352 2 1 ack 40 ------- 1 2.0 1.0 9 210
- 3.58352 2 1 ack 40 ------- 1 2.0 1.0 9 210
r 3.586187 0 3 tcp 1000 ------- 0 0.0 3.0 91 200
+ 3.586187 3 0 ack 40 ------- 0 3.0 0.0 91 211
- 3.586187 3 0 ack 40 ------- 0 3.0 0.0 91 211
r 3.588853 0 3 tcp 1000 ------- 0 0.0 3.0 92 201
+ 3.588853 3 0 ack 40 ------- 0 3.0 0.0 92 212