V -t * -v 1.0a5 -a 0
A -t * -n 1 -p 0 -o 0xffffffff -c 31 -a 1
A -t * -h 1 -m 2147483647 -s 0
c -t * -i 0 -n blue
c -t * -i 1 -n orange
n -t * -a 0 -s 0 -S UP -v circle -c black -i black
n -t * -a 1 -s 1 -S UP -v circle -c black -i black
n -t * -a 2 -s 2 -S UP -v circle -c black -i black
n -t * -a 3 -s 3 -S UP -v circle -c black -i black
l -t * -s 0 -d 1 -S UP -r 3000000 -D 0.17400000000000002 -c black -o right
l -t * -s 1 -d 2 -S UP -r 3000000 -D 0.17400000000000002 -c black -o down
l -t * -s 2 -d 3 -S UP -r 3000000 -D 0.17400000000000002 -c black -o left
l -t * -s 3 -d 0 -S UP -r 3000000 -D 0.17400000000000002 -c black -o up
n -t 0 -s 0 -S DLABEL -l "GBN_sender" -L ""
n -t 0 -s 3 -S DLABEL -l "GBN_receiver" -L ""
n -t 0 -s 1 -S DLABEL -l "SW_sender" -L ""
n -t 0 -s 2 -S DLABEL -l "SW_receiver" -L ""
+ -t 0.25 -s 0 -d 3 -p tcp -e 960 -c 0 -i 0 -a 0 -x {0.0 3.0 0 ------- null}
- -t 0.25 -s 0 -d 3 -p tcp -e 960 -c 0 -i 0 -a 0 -x {0.0 3.0 0 ------- null}
h -t 0.25 -s 0 -d 3 -p tcp -e 960 -c 0 -i 0 -a 0 -x {0.0 3.0 -1 ------- null}
+ -t 0.25 -s 0 -d 3 -p tcp -e 1000 -c 0 -i 1 -a 0 -x {0.0 3.0 1 ------- null}
+ -t 0.25 -s 0 -d 3 -p tcp -e 1000 -c 0 -i 2 -a 0 -x {0.0 3.0 2 ------- null}
+ -t 0.25 -s 0 -d 3 -p tcp -e 1000 -c 0 -i 3 -a 0 -x {0.0 3.0 3 ------- null}
+ -t 0.25 -s 0 -d 3 -p tcp -e 1000 -c 0 -i 4 -a 0 -x {0.0 3.0 4 ------- null}
+ -t 0.25 -s 0 -d 3 -p tcp -e 1000 -c 0 -i 5 -a 0 -x {0.0 3.0 5 ------- null}
+ -t 0.25 -s 0 -d 3 -p tcp -e 1000 -c 0 -i 6 -a 0 -x {0.0 3.0 6 ------- null}
+ -t 0.25 -s 0 -d 3 -p tcp -e 1000 -c 0 -i 7 -a 0 -x {0.0 3.0 7 ------- null}
+ -t 0.25 -s 0 -d 3 -p tcp -e 1000 -c 0 -i 8 -a 0 -x {0.0 3.0 8 ------- null}
+ -t 0.25 -s 0 -d 3 -p tcp -e 1000 -c 0 -i 9 -a 0 -x {0.0 3.0 9 ------- null}
+ -t 0.25 -s 1 -d 2 -p tcp -e 960 -c 1 -i 10 -a 1 -x {1.0 2.0 0 ------- null}
- -t 0.25 -s 1 -d 2 -p tcp -e 960 -c 1 -i 10 -a 1 -x {1.0 2.0 0 ------- null}
h -t 0.25 -s 1 -d 2 -p tcp -e 960 -c 1 -i 10 -a 1 -x {1.0 2.0 -1 ------- null}
- -t 0.25256 -s 0 -d 3 -p tcp -e 1000 -c 0 -i 1 -a 0 -x {0.0 3.0 1 ------- null}
h -t 0.25256 -s 0 -d 3 -p tcp -e 1000 -c 0 -i 1 -a 0 -x {0.0 3.0 -1 ------- null}
- -t 0.255226666666667 -s 0 -d 3 -p tcp -e 1000 -c 0 -i 2 -a 0 -x {0.0 3.0 2 ------- null}
h -t 0.255226666666667 -s 0 -d 3 -p tcp -e 1000 -c 0 -i 2 -a 0 -x {0.0 3.0 -1 ------- null}
- -t 0.257893333333333 -s 0 -d 3 -p tcp -e 1000 -c 0 -i 3 -a 0 -x {0.0 3.0 3 ------- null}
h -t 0.257893333333333 -s 0 -d 3 -p tcp -e 1000 -c 0 -i 3 -a 0 -x {0.0 3.0 -1 ------- null}
- -t 0.26056 -s 0 -d 3 -p tcp -e 1000 -c 0 -i 4 -a 0 -x {0.0 3.0 4 ------- null}
h -t 0.26056 -s 0 -d 3 -p tcp -e 1000 -c 0 -i 4 -a 0 -x {0.0 3.0 -1 ------- null}
- -t 0.263226666666667 -s 0 -d 3 -p tcp -e 1000 -c 0 -i 5 -a 0 -x {0.0 3.0 5 ------- null}
h -t 0.263226666666667 -s 0 -d 3 -p tcp -e 1000 -c 0 -i 5 -a 0 -x {0.0 3.0 -1 ------- null}
- -t 0.265893333333333 -s 0 -d 3 -p tcp -e 1000 -c 0 -i 6 -a 0 -x {0.0 3.0 6 ------- null}
h -t 0.265893333333333 -s 0 -d 3 -p tcp -e 1000 -c 0 -i 6 -a 0 -x {0.0 3.0 -1 ------- null}
- -t 0.26856 -s 0 -d 3 -p tcp -e 1000 -c 0 -i 7 -a 0 -x {0.0 3.0 7 ------- null}
h -t 0.26856 -s 0 -d 3 -p tcp -e 1000 -c 0 -i 7 -a 0 -x {0.0 3.0 -1 ------- null}
- -t 0.271226666666667 -s 0 -d 3 -p tcp -e 1000 -c 0 -i 8 -a 0 -x {0.0 3.0 8 ------- null}
h -t 0.271226666666667 -s 0 -d 3 -p tcp -e 1000 -c 0 -i 8 -a 0 -x {0.0 3.0 -1 ------- null}
- -t 0.273893333333333 -s 0 -d 3 -p tcp -e 1000 -c 0 -i 9 -a 0 -x {0.0 3.0 9 ------- null}
h -t 0.273893333333333 -s 0 -d 3 -p tcp -e 1000 -c 0 -i 9 -a 0 -x {0.0 3.0 -1 ------- null}
r -t 0.42656 -s 0 -d 3 -p tcp -e 960 -c 0 -i 0 -a 0 -x {0.0 3.0 0 ------- null}
+ -t 0.42656 -s 3 -d 0 -p ack -e 40 -c 0 -i 11 -a 0 -x {3.0 0.0 0 ------- null}
- -t 0.42656 -s 3 -d 0 -p ack -e 40 -c 0 -i 11 -a 0 -x {3.0 0.0 0 ------- null}
h -t 0.42656 -s 3 -d 0 -p ack -e 40 -c 0 -i 11 -a 0 -x {3.0 0.0 -1 ------- null}
r -t 0.42656 -s 1 -d 2 -p tcp -e 960 -c 1 -i 10 -a 1 -x {1.0 2.0 0 ------- null}
+ -t 0.42656 -s 2 -d 1 -p ack -e 40 -c 1 -i 12 -a 1 -x {2.0 1.0 0 ------- null}
- -t 0.42656 -s 2 -d 1 -p ack -e 40 -c 1 -i 12 -a 1 -x {2.0 1.0 0 ------- null}
h -t 0.42656 -s 2 -d 1 -p ack -e 40 -c 1 -i 12 -a 1 -x {2.0 1.0 -1 ------- null}
r -t 0.429226666666667 -s 0 -d 3 -p tcp -e 1000 -c 0 -i 1 -a 0 -x {0.0 3.0 1 ------- null}
+ -t 0.429226666666667 -s 3 -d 0 -p ack -e 40 -c 0 -i 13 -a 0 -x {3.0 0.0 1 ------- null}
- -t 0.429226666666667 -s 3 -d 0 -p ack -e 40 -c 0 -i 13 -a 0 -x {3.0 0.0 1 ------- null}
h -t 0.429226666666667 -s 3 -d 0 -p ack -e 40 -c 0 -i 13 -a 0 -x {3.0 0.0 -1 ------- null}
r -t 0.431893333333333 -s 0 -d 3 -p tcp -e 1000 -c 0 -i 2 -a 0 -x {0.0 3.0 2 ------- null}
+ -t 0.431893333333333 -s 3 -d 0 -p ack -e 40 -c 0 -i 14 -a 0 -x {3.0 0.0 2 ------- null}
- -t 0.431893333333333 -s 3 -d 0 -p ack -e 40 -c 0 -i 14 -a 0 -x {3.0 0.0 2 ------- null}
h -t 0.431893333333333 -s 3 -d 0 -p ack -e 40 -c 0 -i 14 -a 0 -x {3.0 0.0 -1 ------- null}
r -t 0.43456 -s 0 -d 3 -p tcp -e 1000 -c 0 -i 3 -a 0 -x {0.0 3.0 3 ------- null}
+ -t 0.43456 -s 3 -d 0 -p ack -e 40 -c 0 -i 15 -a 0 -x {3.0 0.0 3 ------- null}
- -t 0.43456 -s 3 -d 0 -p ack -e 40 -c 0 -i 15 -a 0 -x {3.0 0.0 3 ------- null}
h -t 0.43456 -s 3 -d 0 -p ack -e 40 -c 0 -i 15 -a 0 -x {3.0 0.0 -1 ------- null}
r -t 0.437226666666667 -s 0 -d 3 -p tcp -e 1000 -c 0 -i 4 -a 0 -x {0.0 3.0 4 ------- null}
+ -t 0.437226666666667 -s 3 -d 0 -p ack -e 40 -c 0 -i 16 -a 0 -x {3.0 0.0 4 ------- null}
- -t 0.437226666666667 -s 3 -d 0 -p ack -e 40 -c 0 -i 16 -a 0 -x {3.0 0.0 4 ------- null}
h -t 0.437226666666667 -s 3 -d 0 -p ack -e 40 -c 0 -i 16 -a 0 -x {3.0 0.0 -1 ------- null}
r -t 0.439893333333333 -s 0 -d 3 -p tcp -e 1000 -c 0 -i 5 -a 0 -x {0.0 3.0 5 ------- null}
+ -t 0.439893333333333 -s 3 -d 0 -p ack -e 40 -c 0 -i 17 -a 0 -x {3.0 0.0 5 ------- null}
- -t 0.439893333333333 -s 3 -d 0 -p ack -e 40 -c 0 -i 17 -a 0 -x {3.0 0.0 5 ------- null}
h -t 0.439893333333333 -s 3 -d 0 -p ack -e 40 -c 0 -i 17 -a 0 -x {3.0 0.0 -1 ------- null}
r -t 0.44256 -s 0 -d 3 -p tcp -e 1000 -c 0 -i 6 -a 0 -x {0.0 3.0 6 ------- null}
+ -t 0.44256 -s 3 -d 0 -p ack -e 40 -c 0 -i 18 -a 0 -x {3.0 0.0 6 ------- null}
- -t 0.44256 -s 3 -d 0 -p ack -e 40 -c 0 -i 18 -a 0 -x {3.0 0.0 6 ------- null}
h -t 0.44256 -s 3 -d 0 -p ack -e 40 -c 0 -i 18 -a 0 -x {3.0 0.0 -1 ------- null}
r -t 0.445226666666667 -s 0 -d 3 -p tcp -e 1000 -c 0 -i 7 -a 0 -x {0.0 3.0 7 ------- null}
+ -t 0.445226666666667 -s 3 -d 0 -p ack -e 40 -c 0 -i 19 -a 0 -x {3.0 0.0 7 ------- null}
- -t 0.445226666666667 -s 3 -d 0 -p ack -e 40 -c 0 -i 19 -a 0 -x {3.0 0.0 7 ------- null}
h -t 0.445226666666667 -s 3 -d 0 -p ack -e 40 -c 0 -i 19 -a 0 -x {3.0 0.0 -1 ------- null}
r -t 0.447893333333333 -s 0 -d 3 -p tcp -e 1000 -c 0 -i 8 -a 0 -x {0.0 3.0 8 ------- null}
+ -t 0.447893333333333 -s 3 -d 0 -p ack -e 40 -c 0 -i 20 -a 0 -x {3.0 0.0 8 ------- null}
- -t 0.447893333333333 -s 3 -d 0 -p ack -e 40 -c 0 -i 20 -a 0 -x {3.0 0.0 8 ------- null}
h -t 0.447893333333333 -s 3 -d 0 -p ack -e 40 -c 0 -i 20 -a 0 -x {3.0 0.0 -1 ------- null}
r -t 0.45056 -s 0 -d 3 -p tcp -e 1000 -c 0 -i 9 -a 0 -x {0.0 3.0 9 ------- null}
+ -t 0.45056 -s 3 -d 0 -p ack -e 40 -c 0 -i 21 -a 0 -x {3.0 0.0 9 ------- null}
- -t 0.45056 -s 3 -d 0 -p ack -e 40 -c 0 -i 21 -a 0 -x {3.0 0.0 9 ------- null}
h -t 0.45056 -s 3 -d 0 -p ack -e 40 -c 0 -i 21 -a 0 -x {3.0 0.0 -1 ------- null}
r -t 0.600666666666667 -s 3 -d 0 -p ack -e 40 -c 0 -i 11 -a 0 -x {3.0 0.0 0 ------- null}
+ -t 0.600666666666667 -s 0 -d 3 -p tcp -e 1000 -c 0 -i 22 -a 0 -x {0.0 3.0 10 ------- null}
- -t 0.600666666666667 -s 0 -d 3 -p tcp -e 1000 -c 0 -i 22 -a 0 -x {0.0 3.0 10 ------- null}
h -t 0.600666666666667 -s 0 -d 3 -p tcp -e 1000 -c 0 -i 22 -a 0 -x {0.0 3.0 -1 ------- null}
r -t 0.600666666666667 -s 2 -d 1 -p ack -e 40 -c 1 -i 12 -a 1 -x {2.0 1.0 0 ------- null}
+ -t 0.600666666666667 -s 1 -d 2 -p tcp -e 1000 -c 1 -i 23 -a 1 -x {1.0 2.0 1 ------- null}
- -t 0.600666666666667 -s 1 -d 2 -p tcp -e 1000 -c 1 -i 23 -a 1 -x {1.0 2.0 1 ------- null}
h -t 0.600666666666667 -s 1 -d 2 -p tcp -e 1000 -c 1 -i 23 -a 1 -x {1.0 2.0 -1 ------- null}
r -t 0.603333333333333 -s 3 -d 0 -p ack -e 40 -c 0 -i 13 -a 0 -x {3.0 0.0 1 ------- null}
+ -t 0.603333333333333 -s 0 -d 3 -p tcp -e 1000 -c 0 -i 24 -a 0 -x {0.0 3.0 11 ------- null}
- -t 0.603333333333333 -s 0 -d 3 -p tcp -e 1000 -c 0 -i 24 -a 0 -x {0.0 3.0 11 ------- null}
h -t 0.603333333333333 -s 0 -d 3 -p tcp -e 1000 -c 0 -i 24 -a 0 -x {0.0 3.0 -1 ------- null}
r -t 0.606 -s 3 -d 0 -p ack -e 40 -c 0 -i 14 -a 0 -x {3.0 0.0 2 ------- null}
+ -t 0.606 -s 0 -d 3 -p tcp -e 1000 -c 0 -i 25 -a 0 -x {0.0 3.0 12 ------- null}
- -t 0.606 -s 0 -d 3 -p tcp -e 1000 -c 0 -i 25 -a 0 -x {0.0 3.0 12 ------- null}
h -t 0.606 -s 0 -d 3 -p tcp -e 1000 -c 0 -i 25 -a 0 -x {0.0 3.0 -1 ------- null}
r -t 0.608666666666667 -s 3 -d 0 -p ack -e 40 -c 0 -i 15 -a 0 -x {3.0 0.0 3 ------- null}
+ -t 0.608666666666667 -s 0 -d 3 -p tcp -e 1000 -c 0 -i 26 -a 0 -x {0.0 3.0 13 ------- null}
- -t 0.608666666666667 -s 0 -d 3 -p tcp -e 1000 -c 0 -i 26 -a 0 -x {0.0 3.0 13 ------- null}
h -t 0.608666666666667 -s 0 -d 3 -p tcp -e 1000 -c 0 -i 26 -a 0 -x {0.0 3.0 -1 ------- null}
r -t 0.611333333333333 -s 3 -d 0 -p ack -e 40 -c 0 -i 16 -a 0 -x {3.0 0.0 4 ------- null}
+ -t 0.611333333333333 -s 0 -d 3 -p tcp -e 1000 -c 0 -i 27 -a 0 -x {0.0 3.0 14 ------- null}
- -t 0.611333333333334 -s 0 -d 3 -p tcp -e 1000 -c 0 -i 27 -a 0 -x {0.0 3.0 14 ------- null}
h -t 0.611333333333334 -s 0 -d 3 -p tcp -e 1000 -c 0 -i 27 -a 0 -x {0.0 3.0 -1 ------- null}
r -t 0.614 -s 3 -d 0 -p ack -e 40 -c 0 -i 17 -a 0 -x {3.0 0.0 5 ------- null}
+ -t 0.614 -s 0 -d 3 -p tcp -e 1000 -c 0 -i 28 -a 0 -x {0.0 3.0 15 ------- null}
- -t 0.614 -s 0 -d 3 -p tcp -e 1000 -c 0 -i 28 -a 0 -x {0.0 3.0 15 ------- null}
h -t 0.614 -s 0 -d 3 -p tcp -e 1000 -c 0 -i 28 -a 0 -x {0.0 3.0 -1 ------- null}
r -t 0.616666666666667 -s 3 -d 0 -p ack -e 40 -c 0 -i 18 -a 0 -x {3.0 0.0 6 ------- null}
+ -t 0.616666666666667 -s 0 -d 3 -p tcp -e 1000 -c 0 -i 29 -a 0 -x {0.0 3.0 16 ------- null}
- -t 0.616666666666667 -s 0 -d 3 -p tcp -e 1000 -c 0 -i 29 -a 0 -x {0.0 3.0 16 ------- null}
h -t 0.616666666666667 -s 0 -d 3 -p tcp -e 1000 -c 0 -i 29 -a 0 -x {0.0 3.0 -1 ------- null}
r -t 0.619333333333333 -s 3 -d 0 -p ack -e 40 -c 0 -i 19 -a 0 -x {3.0 0.0 7 ------- null}
+ -t 0.619333333333333 -s 0 -d 3 -p tcp -e 1000 -c 0 -i 30 -a 0 -x {0.0 3.0 17 ------- null}
- -t 0.619333333333334 -s 0 -d 3 -p tcp -e 1000 -c 0 -i 30 -a 0 -x {0.0 3.0 17 ------- null}
h -t 0.619333333333334 -s 0 -d 3 -p tcp -e 1000 -c 0 -i 30 -a 0 -x {0.0 3.0 -1 ------- null}
r -t 0.622 -s 3 -d 0 -p ack -e 40 -c 0 -i 20 -a 0 -x {3.0 0.0 8 ------- null}
+ -t 0.622 -s 0 -d 3 -p tcp -e 1000 -c 0 -i 31 -a 0 -x {0.0 3.0 18 ------- null}
- -t 0.622 -s 0 -d 3 -p tcp -e 1000 -c 0 -i 31 -a 0 -x {0.0 3.0 18 ------- null}
h -t 0.622 -s 0 -d 3 -p tcp -e 1000 -c 0 -i 31 -a 0 -x {0.0 3.0 -1 ------- null}
r -t 0.624666666666667 -s 3 -d 0 -p ack -e 40 -c 0 -i 21 -a 0 -x {3.0 0.0 9 ------- null}
+ -t 0.624666666666667 -s 0 -d 3 -p tcp -e 1000 -c 0 -i 32 -a 0 -x {0.0 3.0 19 ------- null}
- -t 0.624666666666667 -s 0 -d 3 -p tcp -e 1000 -c 0 -i 32 -a 0 -x {0.0 3.0 19 ------- null}
h -t 0.624666666666667 -s 0 -d 3 -p tcp -e 1000 -c 0 -i 32 -a 0 -x {0.0 3.0 -1 ------- null}
r -t 0.777333333333333 -s 0 -d 3 -p tcp -e 1000 -c 0 -i 22 -a 0 -x {0.0 3.0 10 ------- null}
+ -t 0.777333333333333 -s 3 -d 0 -p ack -e 40 -c 0 -i 33 -a 0 -x {3.0 0.0 10 ------- null}
- -t 0.777333333333333 -s 3 -d 0 -p ack -e 40 -c 0 -i 33 -a 0 -x {3.0 0.0 10 ------- null}
h -t 0.777333333333333 -s 3 -d 0 -p ack -e 40 -c 0 -i 33 -a 0 -x {3.0 0.0 -1 ------- null}
r -t 0.777333333333333 -s 1 -d 2 -p tcp -e 1000 -c 1 -i 23 -a 1 -x {1.0 2.0 1 ------- null}
+ -t 0.777333333333333 -s 2 -d 1 -p ack -e 40 -c 1 -i 34 -a 1 -x {2.0 1.0 1 ------- null}
- -t 0.777333333333333 -s 2 -d 1 -p ack -e 40 -c 1 -i 34 -a 1 -x {2.0 1.0 1 ------- null}
h -t 0.777333333333333 -s 2 -d 1 -p ack -e 40 -c 1 -i 34 -a 1 -x {2.0 1.0 -1 ------- null}
r -t 0.78 -s 0 -d 3 -p tcp -e 1000 -c 0 -i 24 -a 0 -x {0.0 3.0 11 ------- null}
+ -t 0.78 -s 3 -d 0 -p ack -e 40 -c 0 -i 35 -a 0 -x {3.0 0.0 11 ------- null}
- -t 0.78 -s 3 -d 0 -p ack -e 40 -c 0 -i 35 -a 0 -x {3.0 0.0 11 ------- null}
h -t 0.78 -s 3 -d 0 -p ack -e 40 -c 0 -i 35 -a 0 -x {3.0 0.0 -1 ------- null}
r -t 0.782666666666667 -s 0 -d 3 -p tcp -e 1000 -c 0 -i 25 -a 0 -x {0.0 3.0 12 ------- null}
+ -t 0.782666666666667 -s 3 -d 0 -p ack -e 40 -c 0 -i 36 -a 0 -x {3.0 0.0 12 ------- null}
- -t 0.782666666666667 -s 3 -d 0 -p ack -e 40 -c 0 -i 36 -a 0 -x {3.0 0.0 12 ------- null}
h -t 0.782666666666667 -s 3 -d 0 -p ack -e 40 -c 0 -i 36 -a 0 -x {3.0 0.0 -1 ------- null}
r -t 0.785333333333333 -s 0 -d 3 -p tcp -e 1000 -c 0 -i 26 -a 0 -x {0.0 3.0 13 ------- null}
+ -t 0.785333333333333 -s 3 -d 0 -p ack -e 40 -c 0 -i 37 -a 0 -x {3.0 0.0 13 ------- null}
- -t 0.785333333333333 -s 3 -d 0 -p ack -e 40 -c 0 -i 37 -a 0 -x {3.0 0.0 13 ------- null}
h -t 0.785333333333333 -s 3 -d 0 -p ack -e 40 -c 0 -i 37 -a 0 -x {3.0 0.0 -1 ------- null}
r -t 0.788 -s 0 -d 3 -p tcp -e 1000 -c 0 -i 27 -a 0 -x {0.0 3.0 14 ------- null}
+ -t 0.788 -s 3 -d 0 -p ack -e 40 -c 0 -i 38 -a 0 -x {3.0 0.0 14 ------- null}
- -t 0.788 -s 3 -d 0 -p ack -e 40 -c 0 -i 38 -a 0 -x {3.0 0.0 14 ------- null}
h -t 0.788 -s 3 -d 0 -p ack -e 40 -c 0 -i 38 -a 0 -x {3.0 0.0 -1 ------- null}
r -t 0.790666666666667 -s 0 -d 3 -p tcp -e 1000 -c 0 -i 28 -a 0 -x {0.0 3.0 15 ------- null}
+ -t 0.790666666666667 -s 3 -d 0 -p ack -e 40 -c 0 -i 39 -a 0 -x {3.0 0.0 15 ------- null}
- -t 0.790666666666667 -s 3 -d 0 -p ack -e 40 -c 0 -i 39 -a 0 -x {3.0 0.0 15 ------- null}
h -t 0.790666666666667 -s 3 -d 0 -p ack -e 40 -c 0 -i 39 -a 0 -x {3.0 0.0 -1 ------- null}
r -t 0.793333333333334 -s 0 -d 3 -p tcp -e 1000 -c 0 -i 29 -a 0 -x {0.0 3.0 16 ------- null}
+ -t 0.793333333333334 -s 3 -d 0 -p ack -e 40 -c 0 -i 40 -a 0 -x {3.0 0.0 16 ------- null}
- -t 0.793333333333334 -s 3 -d 0 -p ack -e 40 -c 0 -i 40 -a 0 -x {3.0 0.0 16 ------- null}
h -t 0.793333333333334 -s 3 -d 0 -p ack -e 40 -c 0 -i 40 -a 0 -x {3.0 0.0 -1 ------- null}
r -t 0.796 -s 0 -d 3 -p tcp -e 1000 -c 0 -i 30 -a 0 -x {0.0 3.0 17 ------- null}
+ -t 0.796 -s 3 -d 0 -p ack -e 40 -c 0 -i 41 -a 0 -x {3.0 0.0 17 ------- null}
- -t 0.796 -s 3 -d 0 -p ack -e 40 -c 0 -i 41 -a 0 -x {3.0 0.0 17 ------- null}
h -t 0.796 -s 3 -d 0 -p ack -e 40 -c 0 -i 41 -a 0 -x {3.0 0.0 -1 ------- null}
r -t 0.798666666666667 -s 0 -d 3 -p tcp -e 1000 -c 0 -i 31 -a 0 -x {0.0 3.0 18 ------- null}
+ -t 0.798666666666667 -s 3 -d 0 -p ack -e 40 -c 0 -i 42 -a 0 -x {3.0 0.0 18 ------- null}
- -t 0.798666666666667 -s 3 -d 0 -p ack -e 40 -c 0 -i 42 -a 0 -x {3.0 0.0 18 ------- null}
h -t 0.798666666666667 -s 3 -d 0 -p ack -e 40 -c 0 -i 42 -a 0 -x {3.0 0.0 -1 ------- null}
r -t 0.801333333333334 -s 0 -d 3 -p tcp -e 1000 -c 0 -i 32 -a 0 -x {0.0 3.0 19 ------- null}
+ -t 0.801333333333334 -s 3 -d 0 -p ack -e 40 -c 0 -i 43 -a 0 -x {3.0 0.0 19 ------- null}
- -t 0.801333333333334 -s 3 -d 0 -p ack -e 40 -c 0 -i 43 -a 0 -x {3.0 0.0 19 ------- null}
h -t 0.801333333333334 -s 3 -d 0 -p ack -e 40 -c 0 -i 43 -a 0 -x {3.0 0.0 -1 ------- null}
r -t 0.95144 -s 3 -d 0 -p ack -e 40 -c 0 -i 33 -a 0 -x {3.0 0.0 10 ------- null}
+ -t 0.95144 -s 0 -d 3 -p tcp -e 1000 -c 0 -i 44 -a 0 -x {0.0 3.0 20 ------- null}
- -t 0.95144 -s 0 -d 3 -p tcp -e 1000 -c 0 -i 44 -a 0 -x {0.0 3.0 20 ------- null}
h -t 0.95144 -s 0 -d 3 -p tcp -e 1000 -c 0 -i 44 -a 0 -x {0.0 3.0 -1 ------- null}
r -t 0.95144 -s 2 -d 1 -p ack -e 40 -c 1 -i 34 -a 1 -x {2.0 1.0 1 ------- null}
+ -t 0.95144 -s 1 -d 2 -p tcp -e 1000 -c 1 -i 45 -a 1 -x {1.0 2.0 2 ------- null}
- -t 0.95144 -s 1 -d 2 -p tcp -e 1000 -c 1 -i 45 -a 1 -x {1.0 2.0 2 ------- null}
h -t 0.95144 -s 1 -d 2 -p tcp -e 1000 -c 1 -i 45 -a 1 -x {1.0 2.0 -1 ------- null}
r -t 0.954106666666667 -s 3 -d 0 -p ack -e 40 -c 0 -i 35 -a 0 -x {3.0 0.0 11 ------- null}
+ -t 0.954106666666667 -s 0 -d 3 -p tcp -e 1000 -c 0 -i 46 -a 0 -x {0.0 3.0 21 ------- null}
- -t 0.954106666666667 -s 0 -d 3 -p tcp -e 1000 -c 0 -i 46 -a 0 -x {0.0 3.0 21 ------- null}
h -t 0.954106666666667 -s 0 -d 3 -p tcp -e 1000 -c 0 -i 46 -a 0 -x {0.0 3.0 -1 ------- null}
r -t 0.956773333333333 -s 3 -d 0 -p ack -e 40 -c 0 -i 36 -a 0 -x {3.0 0.0 12 ------- null}
+ -t 0.956773333333333 -s 0 -d 3 -p tcp -e 1000 -c 0 -i 47 -a 0 -x {0.0 3.0 22 ------- null}
- -t 0.956773333333333 -s 0 -d 3 -p tcp -e 1000 -c 0 -i 47 -a 0 -x {0.0 3.0 22 ------- null}
h -t 0.956773333333333 -s 0 -d 3 -p tcp -e 1000 -c 0 -i 47 -a 0 -x {0.0 3.0 -1 ------- null}
r -t 0.95944 -s 3 -d 0 -p ack -e 40 -c 0 -i 37 -a 0 -x {3.0 0.0 13 ------- null}
+ -t 0.95944 -s 0 -d 3 -p tcp -e 1000 -c 0 -i 48 -a 0 -x {0.0 3.0 23 ------- null}
- -t 0.95944 -s 0 -d 3 -p tcp -e 1000 -c 0 -i 48 -a 0 -x {0.0 3.0 23 ------- null}
h -t 0.95944 -s 0 -d 3 -p tcp -e 1000 -c 0 -i 48 -a 0 -x {0.0 3.0 -1 ------- null}
r -t 0.962106666666667 -s 3 -d 0 -p ack -e 40 -c 0 -i 38 -a 0 -x {3.0 0.0 14 ------- null}
+ -t 0.962106666666667 -s 0 -d 3 -p tcp -e 1000 -c 0 -i 49 -a 0 -x {0.0 3.0 24 ------- null}
- -t 0.962106666666667 -s 0 -d 3 -p tcp -e 1000 -c 0 -i 49 -a 0 -x {0.0 3.0 24 ------- null}
h -t 0.962106666666667 -s 0 -d 3 -p tcp -e 1000 -c 0 -i 49 -a 0 -x {0.0 3.0 -1 ------- null}
r -t 0.964773333333333 -s 3 -d 0 -p ack -e 40 -c 0 -i 39 -a 0 -x {3.0 0.0 15 ------- null}
+ -t 0.964773333333333 -s 0 -d 3 -p tcp -e 1000 -c 0 -i 50 -a 0 -x {0.0 3.0 25 ------- null}
- -t 0.964773333333334 -s 0 -d 3 -p tcp -e 1000 -c 0 -i 50 -a 0 -x {0.0 3.0 25 ------- null}
h -t 0.964773333333334 -s 0 -d 3 -p tcp -e 1000 -c 0 -i 50 -a 0 -x {0.0 3.0 -1 ------- null}
r -t 0.96744 -s 3 -d 0 -p ack -e 40 -c 0 -i 40 -a 0 -x {3.0 0.0 16 ------- null}
+ -t 0.96744 -s 0 -d 3 -p tcp -e 1000 -c 0 -i 51 -a 0 -x {0.0 3.0 26 ------- null}
- -t 0.96744 -s 0 -d 3 -p tcp -e 1000 -c 0 -i 51 -a 0 -x {0.0 3.0 26 ------- null}
h -t 0.96744 -s 0 -d 3 -p tcp -e 1000 -c 0 -i 51 -a 0 -x {0.0 3.0 -1 ------- null}
r -t 0.970106666666667 -s 3 -d 0 -p ack -e 40 -c 0 -i 41 -a 0 -x {3.0 0.0 17 ------- null}
+ -t 0.970106666666667 -s 0 -d 3 -p tcp -e 1000 -c 0 -i 52 -a 0 -x {0.0 3.0 27 ------- null}
- -t 0.970106666666667 -s 0 -d 3 -p tcp -e 1000 -c 0 -i 52 -a 0 -x {0.0 3.0 27 ------- null}
h -t 0.970106666666667 -s 0 -d 3 -p tcp -e 1000 -c 0 -i 52 -a 0 -x {0.0 3.0 -1 ------- null}
r -t 0.972773333333334 -s 3 -d 0 -p ack -e 40 -c 0 -i 42 -a 0 -x {3.0 0.0 18 ------- null}
+ -t 0.972773333333334 -s 0 -d 3 -p tcp -e 1000 -c 0 -i 53 -a 0 -x {0.0 3.0 28 ------- null}
- -t 0.972773333333334 -s 0 -d 3 -p tcp -e 1000 -c 0 -i 53 -a 0 -x {0.0 3.0 28 ------- null}
h -t 0.972773333333334 -s 0 -d 3 -p tcp -e 1000 -c 0 -i 53 -a 0 -x {0.0 3.0 -1 ------- null}
r -t 0.97544 -s 3 -d 0 -p ack -e 40 -c 0 -i 43 -a 0 -x {3.0 0.0 19 ------- null}
+ -t 0.97544 -s 0 -d 3 -p tcp -e 1000 -c 0 -i 54 -a 0 -x {0.0 3.0 29 ------- null}
- -t 0.97544 -s 0 -d 3 -p tcp -e 1000 -c 0 -i 54 -a 0 -x {0.0 3.0 29 ------- null}
h -t 0.97544 -s 0 -d 3 -p tcp -e 1000 -c 0 -i 54 -a 0 -x {0.0 3.0 -1 ------- null}
r -t 1.12810666666667 -s 0 -d 3 -p tcp -e 1000 -c 0 -i 44 -a 0 -x {0.0 3.0 20 ------- null}
+ -t 1.12810666666667 -s 3 -d 0 -p ack -e 40 -c 0 -i 55 -a 0 -x {3.0 0.0 20 ------- null}
- -t 1.12810666666667 -s 3 -d 0 -p ack -e 40 -c 0 -i 55 -a 0 -x {3.0 0.0 20 ------- null}
h -t 1.12810666666667 -s 3 -d 0 -p ack -e 40 -c 0 -i 55 -a 0 -x {3.0 0.0 -1 ------- null}
r -t 1.12810666666667 -s 1 -d 2 -p tcp -e 1000 -c 1 -i 45 -a 1 -x {1.0 2.0 2 ------- null}
+ -t 1.12810666666667 -s 2 -d 1 -p ack -e 40 -c 1 -i 56 -a 1 -x {2.0 1.0 2 ------- null}
- -t 1.12810666666667 -s 2 -d 1 -p ack -e 40 -c 1 -i 56 -a 1 -x {2.0 1.0 2 ------- null}
h -t 1.12810666666667 -s 2 -d 1 -p ack -e 40 -c 1 -i 56 -a 1 -x {2.0 1.0 -1 ------- null}
r -t 1.13077333333333 -s 0 -d 3 -p tcp -e 1000 -c 0 -i 46 -a 0 -x {0.0 3.0 21 ------- null}
+ -t 1.13077333333333 -s 3 -d 0 -p ack -e 40 -c 0 -i 57 -a 0 -x {3.0 0.0 21 ------- null}
- -t 1.13077333333333 -s 3 -d 0 -p ack -e 40 -c 0 -i 57 -a 0 -x {3.0 0.0 21 ------- null}
h -t 1.13077333333333 -s 3 -d 0 -p ack -e 40 -c 0 -i 57 -a 0 -x {3.0 0.0 -1 ------- null}
r -t 1.13344 -s 0 -d 3 -p tcp -e 1000 -c 0 -i 47 -a 0 -x {0.0 3.0 22 ------- null}
+ -t 1.13344 -s 3 -d 0 -p ack -e 40 -c 0 -i 58 -a 0 -x {3.0 0.0 22 ------- null}
- -t 1.13344 -s 3 -d 0 -p ack -e 40 -c 0 -i 58 -a 0 -x {3.0 0.0 22 ------- null}
h -t 1.13344 -s 3 -d 0 -p ack -e 40 -c 0 -i 58 -a 0 -x {3.0 0.0 -1 ------- null}
r -t 1.13610666666667 -s 0 -d 3 -p tcp -e 1000 -c 0 -i 48 -a 0 -x {0.0 3.0 23 ------- null}
+ -t 1.13610666666667 -s 3 -d 0 -p ack -e 40 -c 0 -i 59 -a 0 -x {3.0 0.0 23 ------- null}
- -t 1.13610666666667 -s 3 -d 0 -p ack -e 40 -c 0 -i 59 -a 0 -x {3.0 0.0 23 ------- null}
h -t 1.13610666666667 -s 3 -d 0 -p ack -e 40 -c 0 -i 59 -a 0 -x {3.0 0.0 -1 ------- null}
r -t 1.13877333333333 -s 0 -d 3 -p tcp -e 1000 -c 0 -i 49 -a 0 -x {0.0 3.0 24 ------- null}
+ -t 1.13877333333333 -s 3 -d 0 -p ack -e 40 -c 0 -i 60 -a 0 -x {3.0 0.0 24 ------- null}
- -t 1.13877333333333 -s 3 -d 0 -p ack -e 40 -c 0 -i 60 -a 0 -x {3.0 0.0 24 ------- null}
h -t 1.13877333333333 -s 3 -d 0 -p ack -e 40 -c 0 -i 60 -a 0 -x {3.0 0.0 -1 ------- null}
r -t 1.14144 -s 0 -d 3 -p tcp -e 1000 -c 0 -i 50 -a 0 -x {0.0 3.0 25 ------- null}
+ -t 1.14144 -s 3 -d 0 -p ack -e 40 -c 0 -i 61 -a 0 -x {3.0 0.0 25 ------- null}
- -t 1.14144 -s 3 -d 0 -p ack -e 40 -c 0 -i 61 -a 0 -x {3.0 0.0 25 ------- null}
h -t 1.14144 -s 3 -d 0 -p ack -e 40 -c 0 -i 61 -a 0 -x {3.0 0.0 -1 ------- null}
r -t 1.14410666666667 -s 0 -d 3 -p tcp -e 1000 -c 0 -i 51 -a 0 -x {0.0 3.0 26 ------- null}
+ -t 1.14410666666667 -s 3 -d 0 -p ack -e 40 -c 0 -i 62 -a 0 -x {3.0 0.0 26 ------- null}
- -t 1.14410666666667 -s 3 -d 0 -p ack -e 40 -c 0 -i 62 -a 0 -x {3.0 0.0 26 ------- null}
h -t 1.14410666666667 -s 3 -d 0 -p ack -e 40 -c 0 -i 62 -a 0 -x {3.0 0.0 -1 ------- null}
r -t 1.14677333333333 -s 0 -d 3 -p tcp -e 1000 -c 0 -i 52 -a 0 -x {0.0 3.0 27 ------- null}
+ -t 1.14677333333333 -s 3 -d 0 -p ack -e 40 -c 0 -i 63 -a 0 -x {3.0 0.0 27 ------- null}
- -t 1.14677333333333 -s 3 -d 0 -p ack -e 40 -c 0 -i 63 -a 0 -x {3.0 0.0 27 ------- null}
h -t 1.14677333333333 -s 3 -d 0 -p ack -e 40 -c 0 -i 63 -a 0 -x {3.0 0.0 -1 ------- null}
r -t 1.14944 -s 0 -d 3 -p tcp -e 1000 -c 0 -i 53 -a 0 -x {0.0 3.0 28 ------- null}
+ -t 1.14944 -s 3 -d 0 -p ack -e 40 -c 0 -i 64 -a 0 -x {3.0 0.0 28 ------- null}
- -t 1.14944 -s 3 -d 0 -p ack -e 40 -c 0 -i 64 -a 0 -x {3.0 0.0 28 ------- null}
h -t 1.14944 -s 3 -d 0 -p ack -e 40 -c 0 -i 64 -a 0 -x {3.0 0.0 -1 ------- null}
r -t 1.15210666666667 -s 0 -d 3 -p tcp -e 1000 -c 0 -i 54 -a 0 -x {0.0 3.0 29 ------- null}
+ -t 1.15210666666667 -s 3 -d 0 -p ack -e 40 -c 0 -i 65 -a 0 -x {3.0 0.0 29 ------- null}
- -t 1.15210666666667 -s 3 -d 0 -p ack -e 40 -c 0 -i 65 -a 0 -x {3.0 0.0 29 ------- null}
h -t 1.15210666666667 -s 3 -d 0 -p ack -e 40 -c 0 -i 65 -a 0 -x {3.0 0.0 -1 ------- null}
r -t 1.30221333333333 -s 3 -d 0 -p ack -e 40 -c 0 -i 55 -a 0 -x {3.0 0.0 20 ------- null}
+ -t 1.30221333333333 -s 0 -d 3 -p tcp -e 1000 -c 0 -i 66 -a 0 -x {0.0 3.0 30 ------- null}
- -t 1.30221333333333 -s 0 -d 3 -p tcp -e 1000 -c 0 -i 66 -a 0 -x {0.0 3.0 30 ------- null}
h -t 1.30221333333333 -s 0 -d 3 -p tcp -e 1000 -c 0 -i 66 -a 0 -x {0.0 3.0 -1 ------- null}
r -t 1.30221333333333 -s 2 -d 1 -p ack -e 40 -c 1 -i 56 -a 1 -x {2.0 1.0 2 ------- null}
+ -t 1.30221333333333 -s 1 -d 2 -p tcp -e 1000 -c 1 -i 67 -a 1 -x {1.0 2.0 3 ------- null}
- -t 1.30221333333333 -s 1 -d 2 -p tcp -e 1000 -c 1 -i 67 -a 1 -x {1.0 2.0 3 ------- null}
h -t 1.30221333333333 -s 1 -d 2 -p tcp -e 1000 -c 1 -i 67 -a 1 -x {1.0 2.0 -1 ------- null}
r -t 1.30488 -s 3 -d 0 -p ack -e 40 -c 0 -i 57 -a 0 -x {3.0 0.0 21 ------- null}
+ -t 1.30488 -s 0 -d 3 -p tcp -e 1000 -c 0 -i 68 -a 0 -x {0.0 3.0 31 ------- null}
- -t 1.30488 -s 0 -d 3 -p tcp -e 1000 -c 0 -i 68 -a 0 -x {0.0 3.0 31 ------- null}
h -t 1.30488 -s 0 -d 3 -p tcp -e 1000 -c 0 -i 68 -a 0 -x {0.0 3.0 -1 ------- null}
r -t 1.30754666666667 -s 3 -d 0 -p ack -e 40 -c 0 -i 58 -a 0 -x {3.0 0.0 22 ------- null}
+ -t 1.30754666666667 -s 0 -d 3 -p tcp -e 1000 -c 0 -i 69 -a 0 -x {0.0 3.0 32 ------- null}
- -t 1.30754666666667 -s 0 -d 3 -p tcp -e 1000 -c 0 -i 69 -a 0 -x {0.0 3.0 32 ------- null}
h -t 1.30754666666667 -s 0 -d 3 -p tcp -e 1000 -c 0 -i 69 -a 0 -x {0.0 3.0 -1 ------- null}
r -t 1.31021333333333 -s 3 -d 0 -p ack -e 40 -c 0 -i 59 -a 0 -x {3.0 0.0 23 ------- null}
+ -t 1.31021333333333 -s 0 -d 3 -p tcp -e 1000 -c 0 -i 70 -a 0 -x {0.0 3.0 33 ------- null}
- -t 1.31021333333333 -s 0 -d 3 -p tcp -e 1000 -c 0 -i 70 -a 0 -x {0.0 3.0 33 ------- null}
h -t 1.31021333333333 -s 0 -d 3 -p tcp -e 1000 -c 0 -i 70 -a 0 -x {0.0 3.0 -1 ------- null}
r -t 1.31288 -s 3 -d 0 -p ack -e 40 -c 0 -i 60 -a 0 -x {3.0 0.0 24 ------- null}
+ -t 1.31288 -s 0 -d 3 -p tcp -e 1000 -c 0 -i 71 -a 0 -x {0.0 3.0 34 ------- null}
- -t 1.31288 -s 0 -d 3 -p tcp -e 1000 -c 0 -i 71 -a 0 -x {0.0 3.0 34 ------- null}
h -t 1.31288 -s 0 -d 3 -p tcp -e 1000 -c 0 -i 71 -a 0 -x {0.0 3.0 -1 ------- null}
r -t 1.31554666666667 -s 3 -d 0 -p ack -e 40 -c 0 -i 61 -a 0 -x {3.0 0.0 25 ------- null}
+ -t 1.31554666666667 -s 0 -d 3 -p tcp -e 1000 -c 0 -i 72 -a 0 -x {0.0 3.0 35 ------- null}
- -t 1.31554666666667 -s 0 -d 3 -p tcp -e 1000 -c 0 -i 72 -a 0 -x {0.0 3.0 35 ------- null}
h -t 1.31554666666667 -s 0 -d 3 -p tcp -e 1000 -c 0 -i 72 -a 0 -x {0.0 3.0 -1 ------- null}
r -t 1.31821333333333 -s 3 -d 0 -p ack -e 40 -c 0 -i 62 -a 0 -x {3.0 0.0 26 ------- null}
+ -t 1.31821333333333 -s 0 -d 3 -p tcp -e 1000 -c 0 -i 73 -a 0 -x {0.0 3.0 36 ------- null}
- -t 1.31821333333333 -s 0 -d 3 -p tcp -e 1000 -c 0 -i 73 -a 0 -x {0.0 3.0 36 ------- null}
h -t 1.31821333333333 -s 0 -d 3 -p tcp -e 1000 -c 0 -i 73 -a 0 -x {0.0 3.0 -1 ------- null}
r -t 1.32088 -s 3 -d 0 -p ack -e 40 -c 0 -i 63 -a 0 -x {3.0 0.0 27 ------- null}
+ -t 1.32088 -s 0 -d 3 -p tcp -e 1000 -c 0 -i 74 -a 0 -x {0.0 3.0 37 ------- null}
- -t 1.32088 -s 0 -d 3 -p tcp -e 1000 -c 0 -i 74 -a 0 -x {0.0 3.0 37 ------- null}
h -t 1.32088 -s 0 -d 3 -p tcp -e 1000 -c 0 -i 74 -a 0 -x {0.0 3.0 -1 ------- null}
r -t 1.32354666666667 -s 3 -d 0 -p ack -e 40 -c 0 -i 64 -a 0 -x {3.0 0.0 28 ------- null}
+ -t 1.32354666666667 -s 0 -d 3 -p tcp -e 1000 -c 0 -i 75 -a 0 -x {0.0 3.0 38 ------- null}
- -t 1.32354666666667 -s 0 -d 3 -p tcp -e 1000 -c 0 -i 75 -a 0 -x {0.0 3.0 38 ------- null}
h -t 1.32354666666667 -s 0 -d 3 -p tcp -e 1000 -c 0 -i 75 -a 0 -x {0.0 3.0 -1 ------- null}
r -t 1.32621333333333 -s 3 -d 0 -p ack -e 40 -c 0 -i 65 -a 0 -x {3.0 0.0 29 ------- null}
+ -t 1.32621333333333 -s 0 -d 3 -p tcp -e 1000 -c 0 -i 76 -a 0 -x {0.0 3.0 39 ------- null}
- -t 1.32621333333333 -s 0 -d 3 -p tcp -e 1000 -c 0 -i 76 -a 0 -x {0.0 3.0 39 ------- null}
h -t 1.32621333333333 -s 0 -d 3 -p tcp -e 1000 -c 0 -i 76 -a 0 -x {0.0 3.0 -1 ------- null}
r -t 1.47888 -s 0 -d 3 -p tcp -e 1000 -c 0 -i 66 -a 0 -x {0.0 3.0 30 ------- null}
+ -t 1.47888 -s 3 -d 0 -p ack -e 40 -c 0 -i 77 -a 0 -x {3.0 0.0 30 ------- null}
- -t 1.47888 -s 3 -d 0 -p ack -e 40 -c 0 -i 77 -a 0 -x {3.0 0.0 30 ------- null}
h -t 1.47888 -s 3 -d 0 -p ack -e 40 -c 0 -i 77 -a 0 -x {3.0 0.0 -1 ------- null}
r -t 1.47888 -s 1 -d 2 -p tcp -e 1000 -c 1 -i 67 -a 1 -x {1.0 2.0 3 ------- null}
+ -t 1.47888 -s 2 -d 1 -p ack -e 40 -c 1 -i 78 -a 1 -x {2.0 1.0 3 ------- null}
- -t 1.47888 -s 2 -d 1 -p ack -e 40 -c 1 -i 78 -a 1 -x {2.0 1.0 3 ------- null}
h -t 1.47888 -s 2 -d 1 -p ack -e 40 -c 1 -i 78 -a 1 -x {2.0 1.0 -1 ------- null}
r -t 1.48154666666667 -s 0 -d 3 -p tcp -e 1000 -c 0 -i 68 -a 0 -x {0.0 3.0 31 ------- null}
+ -t 1.48154666666667 -s 3 -d 0 -p ack -e 40 -c 0 -i 79 -a 0 -x {3.0 0.0 31 ------- null}
- -t 1.48154666666667 -s 3 -d 0 -p ack -e 40 -c 0 -i 79 -a 0 -x {3.0 0.0 31 ------- null}
h -t 1.48154666666667 -s 3 -d 0 -p ack -e 40 -c 0 -i 79 -a 0 -x {3.0 0.0 -1 ------- null}
r -t 1.48421333333333 -s 0 -d 3 -p tcp -e 1000 -c 0 -i 69 -a 0 -x {0.0 3.0 32 ------- null}
+ -t 1.48421333333333 -s 3 -d 0 -p ack -e 40 -c 0 -i 80 -a 0 -x {3.0 0.0 32 ------- null}
- -t 1.48421333333333 -s 3 -d 0 -p ack -e 40 -c 0 -i 80 -a 0 -x {3.0 0.0 32 ------- null}
h -t 1.48421333333333 -s 3 -d 0 -p ack -e 40 -c 0 -i 80 -a 0 -x {3.0 0.0 -1 ------- null}
r -t 1.48688 -s 0 -d 3 -p tcp -e 1000 -c 0 -i 70 -a 0 -x {0.0 3.0 33 ------- null}
+ -t 1.48688 -s 3 -d 0 -p ack -e 40 -c 0 -i 81 -a 0 -x {3.0 0.0 33 ------- null}
- -t 1.48688 -s 3 -d 0 -p ack -e 40 -c 0 -i 81 -a 0 -x {3.0 0.0 33 ------- null}
h -t 1.48688 -s 3 -d 0 -p ack -e 40 -c 0 -i 81 -a 0 -x {3.0 0.0 -1 ------- null}
r -t 1.48954666666667 -s 0 -d 3 -p tcp -e 1000 -c 0 -i 71 -a 0 -x {0.0 3.0 34 ------- null}
+ -t 1.48954666666667 -s 3 -d 0 -p ack -e 40 -c 0 -i 82 -a 0 -x {3.0 0.0 34 ------- null}
- -t 1.48954666666667 -s 3 -d 0 -p ack -e 40 -c 0 -i 82 -a 0 -x {3.0 0.0 34 ------- null}
h -t 1.48954666666667 -s 3 -d 0 -p ack -e 40 -c 0 -i 82 -a 0 -x {3.0 0.0 -1 ------- null}
r -t 1.49221333333333 -s 0 -d 3 -p tcp -e 1000 -c 0 -i 72 -a 0 -x {0.0 3.0 35 ------- null}
+ -t 1.49221333333333 -s 3 -d 0 -p ack -e 40 -c 0 -i 83 -a 0 -x {3.0 0.0 35 ------- null}
- -t 1.49221333333333 -s 3 -d 0 -p ack -e 40 -c 0 -i 83 -a 0 -x {3.0 0.0 35 ------- null}
h -t 1.49221333333333 -s 3 -d 0 -p ack -e 40 -c 0 -i 83 -a 0 -x {3.0 0.0 -1 ------- null}
r -t 1.49488 -s 0 -d 3 -p tcp -e 1000 -c 0 -i 73 -a 0 -x {0.0 3.0 36 ------- null}
+ -t 1.49488 -s 3 -d 0 -p ack -e 40 -c 0 -i 84 -a 0 -x {3.0 0.0 36 ------- null}
- -t 1.49488 -s 3 -d 0 -p ack -e 40 -c 0 -i 84 -a 0 -x {3.0 0.0 36 ------- null}
h -t 1.49488 -s 3 -d 0 -p ack -e 40 -c 0 -i 84 -a 0 -x {3.0 0.0 -1 ------- null}
r -t 1.49754666666667 -s 0 -d 3 -p tcp -e 1000 -c 0 -i 74 -a 0 -x {0.0 3.0 37 ------- null}