s 0.250000000 _0_ AGT  --- 0 cbr 1000 [0 0 0 0] ------- [0:0 31:0 32 0] [0] 0 0
r 0.250000000 _0_ RTR  --- 0 cbr 1000 [0 0 0 0] ------- [0:0 31:0 32 0] [0] 0 0
s 0.250000000 _0_ RTR  --- 0 AODV 48 [0 0 0 0] ------- [0:255 -1:255 30 0] [0x2 1 1 [31 0] [0 4]] (REQUEST)
r 0.250900067 _1_ RTR  --- 0 AODV 48 [0 ffffffff 0 800] ------- [0:255 -1:255 30 0] [0x2 1 1 [31 0] [0 4]] (REQUEST)
r 0.250900133 _2_ RTR  --- 0 AODV 48 [0 ffffffff 0 800] ------- [0:255 -1:255 30 0] [0x2 1 1 [31 0] [0 4]] (REQUEST)
r 0.250900200 _3_ RTR  --- 0 AODV 48 [0 ffffffff 0 800] ------- [0:255 -1:255 30 0] [0x2 1 1 [31 0] [0 4]] (REQUEST)
r 0.250900267 _4_ RTR  --- 0 AODV 48 [0 ffffffff 0 800] ------- [0:255 -1:255 30 0] [0x2 1 1 [31 0] [0 4]] (REQUEST)
r 0.250900333 _5_ RTR  --- 0 AODV 48 [0 ffffffff 0 800] ------- [0:255 -1:255 30 0] [0x2 1 1 [31 0] [0 4]] (REQUEST)
r 0.250900400 _6_ RTR  --- 0 AODV 48 [0 ffffffff 0 800] ------- [0:255 -1:255 30 0] [0x2 1 1 [31 0] [0 4]] (REQUEST)
r 0.250900467 _7_ RTR  --- 0 AODV 48 [0 ffffffff 0 800] ------- [0:255 -1:255 30 0] [0x2 1 1 [31 0] [0 4]] (REQUEST)
r 0.250900533 _8_ RTR  --- 0 AODV 48 [0 ffffffff 0 800] ------- [0:255 -1:255 30 0] [0x2 1 1 [31 0] [0 4]] (REQUEST)
r 0.250900600 _9_ RTR  --- 0 AODV 48 [0 ffffffff 0 800] ------- [0:255 -1:255 30 0] [0x2 1 1 [31 0] [0 4]] (REQUEST)
r 0.250900667 _10_ RTR  --- 0 AODV 48 [0 ffffffff 0 800] ------- [0:255 -1:255 30 0] [0x2 1 1 [31 0] [0 4]] (REQUEST)
r 0.250900733 _11_ RTR  --- 0 AODV 48 [0 ffffffff 0 800] ------- [0:255 -1:255 30 0] [0x2 1 1 [31 0] [0 4]] (REQUEST)
r 0.250900800 _12_ RTR  --- 0 AODV 48 [0 ffffffff 0 800] ------- [0:255 -1:255 30 0] [0x2 1 1 [31 0] [0 4]] (REQUEST)
s 0.251042180 _2_ RTR  --- 0 AODV 48 [0 ffffffff 0 800] ------- [2:255 -1:255 29 0] [0x2 2 1 [31 0] [0 4]] (REQUEST)
s 0.251781427 _3_ RTR  --- 0 AODV 48 [0 ffffffff 0 800] ------- [3:255 -1:255 29 0] [0x2 2 1 [31 0] [0 4]] (REQUEST)
r 0.251942247 _3_ RTR  --- 0 AODV 48 [0 ffffffff 2 800] ------- [2:255 -1:255 29 0] [0x2 2 1 [31 0] [0 4]] (REQUEST)
r 0.251942247 _1_ RTR  --- 0 AODV 48 [0 ffffffff 2 800] ------- [2:255 -1:255 29 0] [0x2 2 1 [31 0] [0 4]] (REQUEST)
r 0.251942313 _4_ RTR  --- 0 AODV 48 [0 ffffffff 2 800] ------- [2:255 -1:255 29 0] [0x2 2 1 [31 0] [0 4]] (REQUEST)
r 0.251942313 _0_ RTR  --- 0 AODV 48 [0 ffffffff 2 800] ------- [2:255 -1:255 29 0] [0x2 2 1 [31 0] [0 4]] (REQUEST)
r 0.251942380 _5_ RTR  --- 0 AODV 48 [0 ffffffff 2 800] ------- [2:255 -1:255 29 0] [0x2 2 1 [31 0] [0 4]] (REQUEST)
r 0.251942447 _6_ RTR  --- 0 AODV 48 [0 ffffffff 2 800] ------- [2:255 -1:255 29 0] [0x2 2 1 [31 0] [0 4]] (REQUEST)
r 0.251942513 _7_ RTR  --- 0 AODV 48 [0 ffffffff 2 800] ------- [2:255 -1:255 29 0] [0x2 2 1 [31 0] [0 4]] (REQUEST)
r 0.251942580 _8_ RTR  --- 0 AODV 48 [0 ffffffff 2 800] ------- [2:255 -1:255 29 0] [0x2 2 1 [31 0] [0 4]] (REQUEST)
r 0.251942647 _9_ RTR  --- 0 AODV 48 [0 ffffffff 2 800] ------- [2:255 -1:255 29 0] [0x2 2 1 [31 0] [0 4]] (REQUEST)
r 0.251942713 _10_ RTR  --- 0 AODV 48 [0 ffffffff 2 800] ------- [2:255 -1:255 29 0] [0x2 2 1 [31 0] [0 4]] (REQUEST)
r 0.251942780 _11_ RTR  --- 0 AODV 48 [0 ffffffff 2 800] ------- [2:255 -1:255 29 0] [0x2 2 1 [31 0] [0 4]] (REQUEST)
r 0.251942847 _12_ RTR  --- 0 AODV 48 [0 ffffffff 2 800] ------- [2:255 -1:255 29 0] [0x2 2 1 [31 0] [0 4]] (REQUEST)
r 0.251942913 _13_ RTR  --- 0 AODV 48 [0 ffffffff 2 800] ------- [2:255 -1:255 29 0] [0x2 2 1 [31 0] [0 4]] (REQUEST)
r 0.251942980 _14_ RTR  --- 0 AODV 48 [0 ffffffff 2 800] ------- [2:255 -1:255 29 0] [0x2 2 1 [31 0] [0 4]] (REQUEST)
s 0.252542254 _12_ RTR  --- 0 AODV 48 [0 ffffffff 0 800] ------- [12:255 -1:255 29 0] [0x2 2 1 [31 0] [0 4]] (REQUEST)
s 0.253080996 _13_ RTR  --- 0 AODV 48 [0 ffffffff 2 800] ------- [13:255 -1:255 28 0] [0x2 3 1 [31 0] [0 4]] (REQUEST)
s 0.253246551 _8_ RTR  --- 0 AODV 48 [0 ffffffff 0 800] ------- [8:255 -1:255 29 0] [0x2 2 1 [31 0] [0 4]] (REQUEST)
r 0.253332313 _4_ RTR  --- 0 AODV 48 [0 ffffffff 3 800] ------- [3:255 -1:255 29 0] [0x2 2 1 [31 0] [0 4]] (REQUEST)
r 0.253332313 _2_ RTR  --- 0 AODV 48 [0 ffffffff 3 800] ------- [3:255 -1:255 29 0] [0x2 2 1 [31 0] [0 4]] (REQUEST)
r 0.253332380 _5_ RTR  --- 0 AODV 48 [0 ffffffff 3 800] ------- [3:255 -1:255 29 0] [0x2 2 1 [31 0] [0 4]] (REQUEST)
r 0.253332380 _1_ RTR  --- 0 AODV 48 [0 ffffffff 3 800] ------- [3:255 -1:255 29 0] [0x2 2 1 [31 0] [0 4]] (REQUEST)
r 0.253332447 _6_ RTR  --- 0 AODV 48 [0 ffffffff 3 800] ------- [3:255 -1:255 29 0] [0x2 2 1 [31 0] [0 4]] (REQUEST)
r 0.253332447 _0_ RTR  --- 0 AODV 48 [0 ffffffff 3 800] ------- [3:255 -1:255 29 0] [0x2 2 1 [31 0] [0 4]] (REQUEST)
r 0.253332513 _7_ RTR  --- 0 AODV 48 [0 ffffffff 3 800] ------- [3:255 -1:255 29 0] [0x2 2 1 [31 0] [0 4]] (REQUEST)
r 0.253332580 _8_ RTR  --- 0 AODV 48 [0 ffffffff 3 800] ------- [3:255 -1:255 29 0] [0x2 2 1 [31 0] [0 4]] (REQUEST)
r 0.253332647 _9_ RTR  --- 0 AODV 48 [0 ffffffff 3 800] ------- [3:255 -1:255 29 0] [0x2 2 1 [31 0] [0 4]] (REQUEST)
r 0.253332713 _10_ RTR  --- 0 AODV 48 [0 ffffffff 3 800] ------- [3:255 -1:255 29 0] [0x2 2 1 [31 0] [0 4]] (REQUEST)
r 0.253332780 _11_ RTR  --- 0 AODV 48 [0 ffffffff 3 800] ------- [3:255 -1:255 29 0] [0x2 2 1 [31 0] [0 4]] (REQUEST)
r 0.253332847 _12_ RTR  --- 0 AODV 48 [0 ffffffff 3 800] ------- [3:255 -1:255 29 0] [0x2 2 1 [31 0] [0 4]] (REQUEST)
r 0.253332913 _13_ RTR  --- 0 AODV 48 [0 ffffffff 3 800] ------- [3:255 -1:255 29 0] [0x2 2 1 [31 0] [0 4]] (REQUEST)
r 0.253332980 _14_ RTR  --- 0 AODV 48 [0 ffffffff 3 800] ------- [3:255 -1:255 29 0] [0x2 2 1 [31 0] [0 4]] (REQUEST)
r 0.253333047 _15_ RTR  --- 0 AODV 48 [0 ffffffff 3 800] ------- [3:255 -1:255 29 0] [0x2 2 1 [31 0] [0 4]] (REQUEST)
s 0.253991457 _10_ RTR  --- 0 AODV 48 [0 ffffffff 0 800] ------- [10:255 -1:255 29 0] [0x2 2 1 [31 0] [0 4]] (REQUEST)
s 0.254030018 _6_ RTR  --- 0 AODV 48 [0 ffffffff 0 800] ------- [6:255 -1:255 29 0] [0x2 2 1 [31 0] [0 4]] (REQUEST)
r 0.254342913 _13_ RTR  --- 0 AODV 48 [0 ffffffff c 800] ------- [12:255 -1:255 29 0] [0x2 2 1 [31 0] [0 4]] (REQUEST)
r 0.254342913 _11_ RTR  --- 0 AODV 48 [0 ffffffff c 800] ------- [12:255 -1:255 29 0] [0x2 2 1 [31 0] [0 4]] (REQUEST)
r 0.254342980 _14_ RTR  --- 0 AODV 48 [0 ffffffff c 800] ------- [12:255 -1:255 29 0] [0x2 2 1 [31 0] [0 4]] (REQUEST)
r 0.254342980 _10_ RTR  --- 0 AODV 48 [0 ffffffff c 800] ------- [12:255 -1:255 29 0] [0x2 2 1 [31 0] [0 4]] (REQUEST)
r 0.254343047 _15_ RTR  --- 0 AODV 48 [0 ffffffff c 800] ------- [12:255 -1:255 29 0] [0x2 2 1 [31 0] [0 4]] (REQUEST)
r 0.254343047 _9_ RTR  --- 0 AODV 48 [0 ffffffff c 800] ------- [12:255 -1:255 29 0] [0x2 2 1 [31 0] [0 4]] (REQUEST)
r 0.254343113 _16_ RTR  --- 0 AODV 48 [0 ffffffff c 800] ------- [12:255 -1:255 29 0] [0x2 2 1 [31 0] [0 4]] (REQUEST)
r 0.254343113 _8_ RTR  --- 0 AODV 48 [0 ffffffff c 800] ------- [12:255 -1:255 29 0] [0x2 2 1 [31 0] [0 4]] (REQUEST)
r 0.254343180 _17_ RTR  --- 0 AODV 48 [0 ffffffff c 800] ------- [12:255 -1:255 29 0] [0x2 2 1 [31 0] [0 4]] (REQUEST)
r 0.254343180 _7_ RTR  --- 0 AODV 48 [0 ffffffff c 800] ------- [12:255 -1:255 29 0] [0x2 2 1 [31 0] [0 4]] (REQUEST)
r 0.254343247 _18_ RTR  --- 0 AODV 48 [0 ffffffff c 800] ------- [12:255 -1:255 29 0] [0x2 2 1 [31 0] [0 4]] (REQUEST)
r 0.254343247 _6_ RTR  --- 0 AODV 48 [0 ffffffff c 800] ------- [12:255 -1:255 29 0] [0x2 2 1 [31 0] [0 4]] (REQUEST)
r 0.254343313 _19_ RTR  --- 0 AODV 48 [0 ffffffff c 800] ------- [12:255 -1:255 29 0] [0x2 2 1 [31 0] [0 4]] (REQUEST)
r 0.254343313 _5_ RTR  --- 0 AODV 48 [0 ffffffff c 800] ------- [12:255 -1:255 29 0] [0x2 2 1 [31 0] [0 4]] (REQUEST)
r 0.254343380 _20_ RTR  --- 0 AODV 48 [0 ffffffff c 800] ------- [12:255 -1:255 29 0] [0x2 2 1 [31 0] [0 4]] (REQUEST)
r 0.254343380 _4_ RTR  --- 0 AODV 48 [0 ffffffff c 800] ------- [12:255 -1:255 29 0] [0x2 2 1 [31 0] [0 4]] (REQUEST)
r 0.254343447 _21_ RTR  --- 0 AODV 48 [0 ffffffff c 800] ------- [12:255 -1:255 29 0] [0x2 2 1 [31 0] [0 4]] (REQUEST)
r 0.254343447 _3_ RTR  --- 0 AODV 48 [0 ffffffff c 800] ------- [12:255 -1:255 29 0] [0x2 2 1 [31 0] [0 4]] (REQUEST)
r 0.254343513 _22_ RTR  --- 0 AODV 48 [0 ffffffff c 800] ------- [12:255 -1:255 29 0] [0x2 2 1 [31 0] [0 4]] (REQUEST)
r 0.254343513 _2_ RTR  --- 0 AODV 48 [0 ffffffff c 800] ------- [12:255 -1:255 29 0] [0x2 2 1 [31 0] [0 4]] (REQUEST)
r 0.254343580 _23_ RTR  --- 0 AODV 48 [0 ffffffff c 800] ------- [12:255 -1:255 29 0] [0x2 2 1 [31 0] [0 4]] (REQUEST)
r 0.254343580 _1_ RTR  --- 0 AODV 48 [0 ffffffff c 800] ------- [12:255 -1:255 29 0] [0x2 2 1 [31 0] [0 4]] (REQUEST)
r 0.254343647 _24_ RTR  --- 0 AODV 48 [0 ffffffff c 800] ------- [12:255 -1:255 29 0] [0x2 2 1 [31 0] [0 4]] (REQUEST)
r 0.254343647 _0_ RTR  --- 0 AODV 48 [0 ffffffff c 800] ------- [12:255 -1:255 29 0] [0x2 2 1 [31 0] [0 4]] (REQUEST)
r 0.255213313 _7_ RTR  --- 0 AODV 48 [0 ffffffff 6 800] ------- [6:255 -1:255 29 0] [0x2 2 1 [31 0] [0 4]] (REQUEST)
r 0.255213313 _5_ RTR  --- 0 AODV 48 [0 ffffffff 6 800] ------- [6:255 -1:255 29 0] [0x2 2 1 [31 0] [0 4]] (REQUEST)
r 0.255213380 _8_ RTR  --- 0 AODV 48 [0 ffffffff 6 800] ------- [6:255 -1:255 29 0] [0x2 2 1 [31 0] [0 4]] (REQUEST)
r 0.255213380 _4_ RTR  --- 0 AODV 48 [0 ffffffff 6 800] ------- [6:255 -1:255 29 0] [0x2 2 1 [31 0] [0 4]] (REQUEST)
r 0.255213447 _9_ RTR  --- 0 AODV 48 [0 ffffffff 6 800] ------- [6:255 -1:255 29 0] [0x2 2 1 [31 0] [0 4]] (REQUEST)
r 0.255213447 _3_ RTR  --- 0 AODV 48 [0 ffffffff 6 800] ------- [6:255 -1:255 29 0] [0x2 2 1 [31 0] [0 4]] (REQUEST)
r 0.255213513 _10_ RTR  --- 0 AODV 48 [0 ffffffff 6 800] ------- [6:255 -1:255 29 0] [0x2 2 1 [31 0] [0 4]] (REQUEST)
r 0.255213513 _2_ RTR  --- 0 AODV 48 [0 ffffffff 6 800] ------- [6:255 -1:255 29 0] [0x2 2 1 [31 0] [0 4]] (REQUEST)
r 0.255213580 _11_ RTR  --- 0 AODV 48 [0 ffffffff 6 800] ------- [6:255 -1:255 29 0] [0x2 2 1 [31 0] [0 4]] (REQUEST)
r 0.255213580 _1_ RTR  --- 0 AODV 48 [0 ffffffff 6 800] ------- [6:255 -1:255 29 0] [0x2 2 1 [31 0] [0 4]] (REQUEST)
r 0.255213647 _12_ RTR  --- 0 AODV 48 [0 ffffffff 6 800] ------- [6:255 -1:255 29 0] [0x2 2 1 [31 0] [0 4]] (REQUEST)
r 0.255213647 _0_ RTR  --- 0 AODV 48 [0 ffffffff 6 800] ------- [6:255 -1:255 29 0] [0x2 2 1 [31 0] [0 4]] (REQUEST)
r 0.255213713 _13_ RTR  --- 0 AODV 48 [0 ffffffff 6 800] ------- [6:255 -1:255 29 0] [0x2 2 1 [31 0] [0 4]] (REQUEST)
r 0.255213780 _14_ RTR  --- 0 AODV 48 [0 ffffffff 6 800] ------- [6:255 -1:255 29 0] [0x2 2 1 [31 0] [0 4]] (REQUEST)
r 0.255213847 _15_ RTR  --- 0 AODV 48 [0 ffffffff 6 800] ------- [6:255 -1:255 29 0] [0x2 2 1 [31 0] [0 4]] (REQUEST)
r 0.255213913 _16_ RTR  --- 0 AODV 48 [0 ffffffff 6 800] ------- [6:255 -1:255 29 0] [0x2 2 1 [31 0] [0 4]] (REQUEST)
r 0.255213980 _17_ RTR  --- 0 AODV 48 [0 ffffffff 6 800] ------- [6:255 -1:255 29 0] [0x2 2 1 [31 0] [0 4]] (REQUEST)
r 0.255214047 _18_ RTR  --- 0 AODV 48 [0 ffffffff 6 800] ------- [6:255 -1:255 29 0] [0x2 2 1 [31 0] [0 4]] (REQUEST)
s 0.255312000 _4_ RTR  --- 0 AODV 48 [0 ffffffff 0 800] ------- [4:255 -1:255 29 0] [0x2 2 1 [31 0] [0 4]] (REQUEST)
r 0.256212067 _5_ RTR  --- 0 AODV 48 [0 ffffffff 4 800] ------- [4:255 -1:255 29 0] [0x2 2 1 [31 0] [0 4]] (REQUEST)
r 0.256212067 _3_ RTR  --- 0 AODV 48 [0 ffffffff 4 800] ------- [4:255 -1:255 29 0] [0x2 2 1 [31 0] [0 4]] (REQUEST)
r 0.256212134 _6_ RTR  --- 0 AODV 48 [0 ffffffff 4 800] ------- [4:255 -1:255 29 0] [0x2 2 1 [31 0] [0 4]] (REQUEST)
r 0.256212134 _2_ RTR  --- 0 AODV 48 [0 ffffffff 4 800] ------- [4:255 -1:255 29 0] [0x2 2 1 [31 0] [0 4]] (REQUEST)
r 0.256212200 _7_ RTR  --- 0 AODV 48 [0 ffffffff 4 800] ------- [4:255 -1:255 29 0] [0x2 2 1 [31 0] [0 4]] (REQUEST)
r 0.256212200 _1_ RTR  --- 0 AODV 48 [0 ffffffff 4 800] ------- [4:255 -1:255 29 0] [0x2 2 1 [31 0] [0 4]] (REQUEST)
r 0.256212267 _8_ RTR  --- 0 AODV 48 [0 ffffffff 4 800] ------- [4:255 -1:255 29 0] [0x2 2 1 [31 0] [0 4]] (REQUEST)
r 0.256212267 _0_ RTR  --- 0 AODV 48 [0 ffffffff 4 800] ------- [4:255 -1:255 29 0] [0x2 2 1 [31 0] [0 4]] (REQUEST)
r 0.256212334 _9_ RTR  --- 0 AODV 48 [0 ffffffff 4 800] ------- [4:255 -1:255 29 0] [0x2 2 1 [31 0] [0 4]] (REQUEST)
r 0.256212400 _10_ RTR  --- 0 AODV 48 [0 ffffffff 4 800] ------- [4:255 -1:255 29 0] [0x2 2 1 [31 0] [0 4]] (REQUEST)
r 0.256212467 _11_ RTR  --- 0 AODV 48 [0 ffffffff 4 800] ------- [4:255 -1:255 29 0] [0x2 2 1 [31 0] [0 4]] (REQUEST)
r 0.256212534 _12_ RTR  --- 0 AODV 48 [0 ffffffff 4 800] ------- [4:255 -1:255 29 0] [0x2 2 1 [31 0] [0 4]] (REQUEST)
r 0.256212600 _13_ RTR  --- 0 AODV 48 [0 ffffffff 4 800] ------- [4:255 -1:255 29 0] [0x2 2 1 [31 0] [0 4]] (REQUEST)
r 0.256212667 _14_ RTR  --- 0 AODV 48 [0 ffffffff 4 800] ------- [4:255 -1:255 29 0] [0x2 2 1 [31 0] [0 4]] (REQUEST)
r 0.256212734 _15_ RTR  --- 0 AODV 48 [0 ffffffff 4 800] ------- [4:255 -1:255 29 0] [0x2 2 1 [31 0] [0 4]] (REQUEST)
r 0.256212800 _16_ RTR  --- 0 AODV 48 [0 ffffffff 4 800] ------- [4:255 -1:255 29 0] [0x2 2 1 [31 0] [0 4]] (REQUEST)
s 0.256458874 _1_ RTR  --- 0 AODV 48 [0 ffffffff 0 800] ------- [1:255 -1:255 29 0] [0x2 2 1 [31 0] [0 4]] (REQUEST)
s 0.256514975 _20_ RTR  --- 0 AODV 48 [0 ffffffff c 800] ------- [20:255 -1:255 28 0] [0x2 3 1 [31 0] [0 4]] (REQUEST)
s 0.256755703 _21_ RTR  --- 0 AODV 48 [0 ffffffff c 800] ------- [21:255 -1:255 28 0] [0x2 3 1 [31 0] [0 4]] (REQUEST)
s 0.256820457 _15_ RTR  --- 0 AODV 48 [0 ffffffff 3 800] ------- [15:255 -1:255 28 0] [0x2 3 1 [31 0] [0 4]] (REQUEST)
r 0.257082334 _9_ RTR  --- 0 AODV 48 [0 ffffffff 8 800] ------- [8:255 -1:255 29 0] [0x2 2 1 [31 0] [0 4]] (REQUEST)
r 0.257082334 _7_ RTR  --- 0 AODV 48 [0 ffffffff 8 800] ------- [8:255 -1:255 29 0] [0x2 2 1 [31 0] [0 4]] (REQUEST)
r 0.257082400 _10_ RTR  --- 0 AODV 48 [0 ffffffff 8 800] ------- [8:255 -1:255 29 0] [0x2 2 1 [31 0] [0 4]] (REQUEST)
r 0.257082400 _6_ RTR  --- 0 AODV 48 [0 ffffffff 8 800] ------- [8:255 -1:255 29 0] [0x2 2 1 [31 0] [0 4]] (REQUEST)
r 0.257082467 _11_ RTR  --- 0 AODV 48 [0 ffffffff 8 800] ------- [8:255 -1:255 29 0] [0x2 2 1 [31 0] [0 4]] (REQUEST)
r 0.257082467 _5_ RTR  --- 0 AODV 48 [0 ffffffff 8 800] ------- [8:255 -1:255 29 0] [0x2 2 1 [31 0] [0 4]] (REQUEST)
r 0.257082534 _12_ RTR  --- 0 AODV 48 [0 ffffffff 8 800] ------- [8:255 -1:255 29 0] [0x2 2 1 [31 0] [0 4]] (REQUEST)
r 0.257082534 _4_ RTR  --- 0 AODV 48 [0 ffffffff 8 800] ------- [8:255 -1:255 29 0] [0x2 2 1 [31 0] [0 4]] (REQUEST)
r 0.257082600 _13_ RTR  --- 0 AODV 48 [0 ffffffff 8 800] ------- [8:255 -1:255 29 0] [0x2 2 1 [31 0] [0 4]] (REQUEST)
r 0.257082600 _3_ RTR  --- 0 AODV 48 [0 ffffffff 8 800] ------- [8:255 -1:255 29 0] [0x2 2 1 [31 0] [0 4]] (REQUEST)
r 0.257082667 _14_ RTR  --- 0 AODV 48 [0 ffffffff 8 800] ------- [8:255 -1:255 29 0] [0x2 2 1 [31 0] [0 4]] (REQUEST)
r 0.257082667 _2_ RTR  --- 0 AODV 48 [0 ffffffff 8 800] ------- [8:255 -1:255 29 0] [0x2 2 1 [31 0] [0 4]] (REQUEST)
r 0.257082734 _15_ RTR  --- 0 AODV 48 [0 ffffffff 8 800] ------- [8:255 -1:255 29 0] [0x2 2 1 [31 0] [0 4]] (REQUEST)
r 0.257082734 _1_ RTR  --- 0 AODV 48 [0 ffffffff 8 800] ------- [8:255 -1:255 29 0] [0x2 2 1 [31 0] [0 4]] (REQUEST)
r 0.257082800 _16_ RTR  --- 0 AODV 48 [0 ffffffff 8 800] ------- [8:255 -1:255 29 0] [0x2 2 1 [31 0] [0 4]] (REQUEST)
r 0.257082800 _0_ RTR  --- 0 AODV 48 [0 ffffffff 8 800] ------- [8:255 -1:255 29 0] [0x2 2 1 [31 0] [0 4]] (REQUEST)
r 0.257082867 _17_ RTR  --- 0 AODV 48 [0 ffffffff 8 800] ------- [8:255 -1:255 29 0] [0x2 2 1 [31 0] [0 4]] (REQUEST)
r 0.257082934 _18_ RTR  --- 0 AODV 48 [0 ffffffff 8 800] ------- [8:255 -1:255 29 0] [0x2 2 1 [31 0] [0 4]] (REQUEST)
r 0.257083000 _19_ RTR  --- 0 AODV 48 [0 ffffffff 8 800] ------- [8:255 -1:255 29 0] [0x2 2 1 [31 0] [0 4]] (REQUEST)
r 0.257083067 _20_ RTR  --- 0 AODV 48 [0 ffffffff 8 800] ------- [8:255 -1:255 29 0] [0x2 2 1 [31 0] [0 4]] (REQUEST)
s 0.257289251 _9_ RTR  --- 0 AODV 48 [0 ffffffff 0 800] ------- [9:255 -1:255 29 0] [0x2 2 1 [31 0] [0 4]] (REQUEST)
r 0.257972467 _11_ RTR  --- 0 AODV 48 [0 ffffffff a 800] ------- [10:255 -1:255 29 0] [0x2 2 1 [31 0] [0 4]] (REQUEST)
r 0.257972467 _9_ RTR  --- 0 AODV 48 [0 ffffffff a 800] ------- [10:255 -1:255 29 0] [0x2 2 1 [31 0] [0 4]] (REQUEST)
r 0.257972534 _12_ RTR  --- 0 AODV 48 [0 ffffffff a 800] ------- [10:255 -1:255 29 0] [0x2 2 1 [31 0] [0 4]] (REQUEST)
r 0.257972534 _8_ RTR  --- 0 AODV 48 [0 ffffffff a 800] ------- [10:255 -1:255 29 0] [0x2 2 1 [31 0] [0 4]] (REQUEST)
r 0.257972600 _13_ RTR  --- 0 AODV 48 [0 ffffffff a 800] ------- [10:255 -1:255 29 0] [0x2 2 1 [31 0] [0 4]] (REQUEST)
r 0.257972600 _7_ RTR  --- 0 AODV 48 [0 ffffffff a 800] ------- [10:255 -1:255 29 0] [0x2 2 1 [31 0] [0 4]] (REQUEST)
r 0.257972667 _14_ RTR  --- 0 AODV 48 [0 ffffffff a 800] ------- [10:255 -1:255 29 0] [0x2 2 1 [31 0] [0 4]] (REQUEST)
r 0.257972667 _6_ RTR  --- 0 AODV 48 [0 ffffffff a 800] ------- [10:255 -1:255 29 0] [0x2 2 1 [31 0] [0 4]] (REQUEST)
r 0.257972734 _15_ RTR  --- 0 AODV 48 [0 ffffffff a 800] ------- [10:255 -1:255 29 0] [0x2 2 1 [31 0] [0 4]] (REQUEST)
r 0.257972734 _5_ RTR  --- 0 AODV 48 [0 ffffffff a 800] ------- [10:255 -1:255 29 0] [0x2 2 1 [31 0] [0 4]] (REQUEST)
r 0.257972800 _16_ RTR  --- 0 AODV 48 [0 ffffffff a 800] ------- [10:255 -1:255 29 0] [0x2 2 1 [31 0] [0 4]] (REQUEST)
r 0.257972800 _4_ RTR  --- 0 AODV 48 [0 ffffffff a 800] ------- [10:255 -1:255 29 0] [0x2 2 1 [31 0] [0 4]] (REQUEST)
r 0.257972867 _17_ RTR  --- 0 AODV 48 [0 ffffffff a 800] ------- [10:255 -1:255 29 0] [0x2 2 1 [31 0] [0 4]] (REQUEST)
r 0.257972867 _3_ RTR  --- 0 AODV 48 [0 ffffffff a 800] ------- [10:255 -1:255 29 0] [0x2 2 1 [31 0] [0 4]] (REQUEST)
r 0.257972934 _18_ RTR  --- 0 AODV 48 [0 ffffffff a 800] ------- [10:255 -1:255 29 0] [0x2 2 1 [31 0] [0 4]] (REQUEST)
r 0.257972934 _2_ RTR  --- 0 AODV 48 [0 ffffffff a 800] ------- [10:255 -1:255 29 0] [0x2 2 1 [31 0] [0 4]] (REQUEST)
r 0.257973000 _19_ RTR  --- 0 AODV 48 [0 ffffffff a 800] ------- [10:255 -1:255 29 0] [0x2 2 1 [31 0] [0 4]] (REQUEST)
r 0.257973000 _1_ RTR  --- 0 AODV 48 [0 ffffffff a 800] ------- [10:255 -1:255 29 0] [0x2 2 1 [31 0] [0 4]] (REQUEST)
r 0.257973067 _20_ RTR  --- 0 AODV 48 [0 ffffffff a 800] ------- [10:255 -1:255 29 0] [0x2 2 1 [31 0] [0 4]] (REQUEST)
r 0.257973067 _0_ RTR  --- 0 AODV 48 [0 ffffffff a 800] ------- [10:255 -1:255 29 0] [0x2 2 1 [31 0] [0 4]] (REQUEST)
r 0.257973134 _21_ RTR  --- 0 AODV 48 [0 ffffffff a 800] ------- [10:255 -1:255 29 0] [0x2 2 1 [31 0] [0 4]] (REQUEST)
r 0.257973200 _22_ RTR  --- 0 AODV 48 [0 ffffffff a 800] ------- [10:255 -1:255 29 0] [0x2 2 1 [31 0] [0 4]] (REQUEST)
s 0.258891888 _5_ RTR  --- 0 AODV 48 [0 ffffffff 0 800] ------- [5:255 -1:255 29 0] [0x2 2 1 [31 0] [0 4]] (REQUEST)
r 0.258923200 _22_ RTR  --- 0 AODV 48 [0 ffffffff 15 800] ------- [21:255 -1:255 28 0] [0x2 3 1 [31 0] [0 4]] (REQUEST)
r 0.258923200 _20_ RTR  --- 0 AODV 48 [0 ffffffff 15 800] ------- [21:255 -1:255 28 0] [0x2 3 1 [31 0] [0 4]] (REQUEST)
r 0.258923267 _23_ RTR  --- 0 AODV 48 [0 ffffffff 15 800] ------- [21:255 -1:255 28 0] [0x2 3 1 [31 0] [0 4]] (REQUEST)
r 0.258923267 _19_ RTR  --- 0 AODV 48 [0 ffffffff 15 800] ------- [21:255 -1:255 28 0] [0x2 3 1 [31 0] [0 4]] (REQUEST)
r 0.258923334 _24_ RTR  --- 0 AODV 48 [0 ffffffff 15 800] ------- [21:255 -1:255 28 0] [0x2 3 1 [31 0] [0 4]] (REQUEST)
r 0.258923334 _18_ RTR  --- 0 AODV 48 [0 ffffffff 15 800] ------- [21:255 -1:255 28 0] [0x2 3 1 [31 0] [0 4]] (REQUEST)
r 0.258923400 _25_ RTR  --- 0 AODV 48 [0 ffffffff 15 800] ------- [21:255 -1:255 28 0] [0x2 3 1 [31 0] [0 4]] (REQUEST)
r 0.258923400 _17_ RTR  --- 0 AODV 48 [0 ffffffff 15 800] ------- [21:255 -1:255 28 0] [0x2 3 1 [31 0] [0 4]] (REQUEST)
r 0.258923467 _26_ RTR  --- 0 AODV 48 [0 ffffffff 15 800] ------- [21:255 -1:255 28 0] [0x2 3 1 [31 0] [0 4]] (REQUEST)
r 0.258923467 _16_ RTR  --- 0 AODV 48 [0 ffffffff 15 800] ------- [21:255 -1:255 28 0] [0x2 3 1 [31 0] [0 4]] (REQUEST)
r 0.258923534 _27_ RTR  --- 0 AODV 48 [0 ffffffff 15 800] ------- [21:255 -1:255 28 0] [0x2 3 1 [31 0] [0 4]] (REQUEST)
r 0.258923534 _15_ RTR  --- 0 AODV 48 [0 ffffffff 15 800] ------- [21:255 -1:255 28 0] [0x2 3 1 [31 0] [0 4]] (REQUEST)
r 0.258923600 _28_ RTR  --- 0 AODV 48 [0 ffffffff 15 800] ------- [21:255 -1:255 28 0] [0x2 3 1 [31 0] [0 4]] (REQUEST)
r 0.258923600 _14_ RTR  --- 0 AODV 48 [0 ffffffff 15 800] ------- [21:255 -1:255 28 0] [0x2 3 1 [31 0] [0 4]] (REQUEST)
r 0.258923667 _29_ RTR  --- 0 AODV 48 [0 ffffffff 15 800] ------- [21:255 -1:255 28 0] [0x2 3 1 [31 0] [0 4]] (REQUEST)
r 0.258923667 _13_ RTR  --- 0 AODV 48 [0 ffffffff 15 800] ------- [21:255 -1:255 28 0] [0x2 3 1 [31 0] [0 4]] (REQUEST)
r 0.258923734 _30_ RTR  --- 0 AODV 48 [0 ffffffff 15 800] ------- [21:255 -1:255 28 0] [0x2 3 1 [31 0] [0 4]] (REQUEST)
r 0.258923734 _12_ RTR  --- 0 AODV 48 [0 ffffffff 15 800] ------- [21:255 -1:255 28 0] [0x2 3 1 [31 0] [0 4]] (REQUEST)
r 0.258923800 _31_ RTR  --- 0 AODV 48 [0 ffffffff 15 800] ------- [21:255 -1:255 28 0] [0x2 3 1 [31 0] [0 4]] (REQUEST)
r 0.258923800 _11_ RTR  --- 0 AODV 48 [0 ffffffff 15 800] ------- [21:255 -1:255 28 0] [0x2 3 1 [31 0] [0 4]] (REQUEST)
s 0.258923800 _31_ RTR  --- 0 AODV 44 [0 0 0 0] ------- [31:255 0:255 30 21] [0x4 1 [31 2] 10.000000] (REPLY)
r 0.258923867 _10_ RTR  --- 0 AODV 48 [0 ffffffff 15 800] ------- [21:255 -1:255 28 0] [0x2 3 1 [31 0] [0 4]] (REQUEST)
r 0.258923934 _9_ RTR  --- 0 AODV 48 [0 ffffffff 15 800] ------- [21:255 -1:255 28 0] [0x2 3 1 [31 0] [0 4]] (REQUEST)
s 0.259004273 _16_ RTR  --- 0 AODV 48 [0 ffffffff c 800] ------- [16:255 -1:255 28 0] [0x2 3 1 [31 0] [0 4]] (REQUEST)
s 0.259065227 _7_ RTR  --- 0 AODV 48 [0 ffffffff 0 800] ------- [7:255 -1:255 29 0] [0x2 2 1 [31 0] [0 4]] (REQUEST)
s 0.259263969 _11_ RTR  --- 0 AODV 48 [0 ffffffff 0 800] ------- [11:255 -1:255 29 0] [0x2 2 1 [31 0] [0 4]] (REQUEST)
r 0.259793734 _14_ RTR  --- 0 AODV 48 [0 ffffffff d 800] ------- [13:255 -1:255 28 0] [0x2 3 1 [31 0] [0 4]] (REQUEST)
r 0.259793734 _12_ RTR  --- 0 AODV 48 [0 ffffffff d 800] ------- [13:255 -1:255 28 0] [0x2 3 1 [31 0] [0 4]] (REQUEST)
r 0.259793800 _15_ RTR  --- 0 AODV 48 [0 ffffffff d 800] ------- [13:255 -1:255 28 0] [0x2 3 1 [31 0] [0 4]] (REQUEST)
r 0.259793800 _11_ RTR  --- 0 AODV 48 [0 ffffffff d 800] ------- [13:255 -1:255 28 0] [0x2 3 1 [31 0] [0 4]] (REQUEST)
r 0.259793867 _16_ RTR  --- 0 AODV 48 [0 ffffffff d 800] ------- [13:255 -1:255 28 0] [0x2 3 1 [31 0] [0 4]] (REQUEST)
r 0.259793867 _10_ RTR  --- 0 AODV 48 [0 ffffffff d 800] ------- [13:255 -1:255 28 0] [0x2 3 1 [31 0] [0 4]] (REQUEST)
r 0.259793934 _17_ RTR  --- 0 AODV 48 [0 ffffffff d 800] ------- [13:255 -1:255 28 0] [0x2 3 1 [31 0] [0 4]] (REQUEST)
r 0.259793934 _9_ RTR  --- 0 AODV 48 [0 ffffffff d 800] ------- [13:255 -1:255 28 0] [0x2 3 1 [31 0] [0 4]] (REQUEST)
r 0.259794000 _18_ RTR  --- 0 AODV 48 [0 ffffffff d 800] ------- [13:255 -1:255 28 0] [0x2 3 1 [31 0] [0 4]] (REQUEST)
r 0.259794000 _8_ RTR  --- 0 AODV 48 [0 ffffffff d 800] ------- [13:255 -1:255 28 0] [0x2 3 1 [31 0] [0 4]] (REQUEST)
r 0.259794067 _19_ RTR  --- 0 AODV 48 [0 ffffffff d 800] ------- [13:255 -1:255 28 0] [0x2 3 1 [31 0] [0 4]] (REQUEST)
r 0.259794067 _7_ RTR  --- 0 AODV 48 [0 ffffffff d 800] ------- [13:255 -1:255 28 0] [0x2 3 1 [31 0] [0 4]] (REQUEST)
r 0.259794134 _20_ RTR  --- 0 AODV 48 [0 ffffffff d 800] ------- [13:255 -1:255 28 0] [0x2 3 1 [31 0] [0 4]] (REQUEST)
r 0.259794134 _6_ RTR  --- 0 AODV 48 [0 ffffffff d 800] ------- [13:255 -1:255 28 0] [0x2 3 1 [31 0] [0 4]] (REQUEST)
r 0.259794200 _21_ RTR  --- 0 AODV 48 [0 ffffffff d 800] ------- [13:255 -1:255 28 0] [0x2 3 1 [31 0] [0 4]] (REQUEST)
r 0.259794200 _5_ RTR  --- 0 AODV 48 [0 ffffffff d 800] ------- [13:255 -1:255 28 0] [0x2 3 1 [31 0] [0 4]] (REQUEST)
r 0.259794267 _22_ RTR  --- 0 AODV 48 [0 ffffffff d 800] ------- [13:255 -1:255 28 0] [0x2 3 1 [31 0] [0 4]] (REQUEST)
r 0.259794267 _4_ RTR  --- 0 AODV 48 [0 ffffffff d 800] ------- [13:255 -1:255 28 0] [0x2 3 1 [31 0] [0 4]] (REQUEST)
r 0.259794334 _23_ RTR  --- 0 AODV 48 [0 ffffffff d 800] ------- [13:255 -1:255 28 0] [0x2 3 1 [31 0] [0 4]] (REQUEST)
r 0.259794334 _3_ RTR  --- 0 AODV 48 [0 ffffffff d 800] ------- [13:255 -1:255 28 0] [0x2 3 1 [31 0] [0 4]] (REQUEST)
r 0.259794400 _24_ RTR  --- 0 AODV 48 [0 ffffffff d 800] ------- [13:255 -1:255 28 0] [0x2 3 1 [31 0] [0 4]] (REQUEST)
r 0.259794400 _2_ RTR  --- 0 AODV 48 [0 ffffffff d 800] ------- [13:255 -1:255 28 0] [0x2 3 1 [31 0] [0 4]] (REQUEST)
r 0.259794467 _25_ RTR  --- 0 AODV 48 [0 ffffffff d 800] ------- [13:255 -1:255 28 0] [0x2 3 1 [31 0] [0 4]] (REQUEST)
r 0.259794467 _1_ RTR  --- 0 AODV 48 [0 ffffffff d 800] ------- [13:255 -1:255 28 0] [0x2 3 1 [31 0] [0 4]] (REQUEST)
s 0.260154569 _27_ RTR  --- 0 AODV 48 [0 ffffffff 15 800] ------- [27:255 -1:255 27 0] [0x2 4 1 [31 0] [0 4]] (REQUEST)
s 0.260540257 _14_ RTR  --- 0 AODV 48 [0 ffffffff 2 800] ------- [14:255 -1:255 28 0] [0x2 3 1 [31 0] [0 4]] (REQUEST)
r 0.260704200 _21_ RTR  --- 0 AODV 48 [0 ffffffff 14 800] ------- [20:255 -1:255 28 0] [0x2 3 1 [31 0] [0 4]] (REQUEST)
r 0.260704200 _19_ RTR  --- 0 AODV 48 [0 ffffffff 14 800] ------- [20:255 -1:255 28 0] [0x2 3 1 [31 0] [0 4]] (REQUEST)
r 0.260704267 _22_ RTR  --- 0 AODV 48 [0 ffffffff 14 800] ------- [20:255 -1:255 28 0] [0x2 3 1 [31 0] [0 4]] (REQUEST)
r 0.260704267 _18_ RTR  --- 0 AODV 48 [0 ffffffff 14 800] ------- [20:255 -1:255 28 0] [0x2 3 1 [31 0] [0 4]] (REQUEST)
r 0.260704334 _23_ RTR  --- 0 AODV 48 [0 ffffffff 14 800] ------- [20:255 -1:255 28 0] [0x2 3 1 [31 0] [0 4]] (REQUEST)
r 0.260704334 _17_ RTR  --- 0 AODV 48 [0 ffffffff 14 800] ------- [20:255 -1:255 28 0] [0x2 3 1 [31 0] [0 4]] (REQUEST)
r 0.260704400 _24_ RTR  --- 0 AODV 48 [0 ffffffff 14 800] ------- [20:255 -1:255 28 0] [0x2 3 1 [31 0] [0 4]] (REQUEST)
r 0.260704400 _16_ RTR  --- 0 AODV 48 [0 ffffffff 14 800] ------- [20:255 -1:255 28 0] [0x2 3 1 [31 0] [0 4]] (REQUEST)
r 0.260704467 _25_ RTR  --- 0 AODV 48 [0 ffffffff 14 800] ------- [20:255 -1:255 28 0] [0x2 3 1 [31 0] [0 4]] (REQUEST)
r 0.260704467 _15_ RTR  --- 0 AODV 48 [0 ffffffff 14 800] ------- [20:255 -1:255 28 0] [0x2 3 1 [31 0] [0 4]] (REQUEST)
r 0.260704534 _26_ RTR  --- 0 AODV 48 [0 ffffffff 14 800] ------- [20:255 -1:255 28 0] [0x2 3 1 [31 0] [0 4]] (REQUEST)
r 0.260704534 _14_ RTR  --- 0 AODV 48 [0 ffffffff 14 800] ------- [20:255 -1:255 28 0] [0x2 3 1 [31 0] [0 4]] (REQUEST)
r 0.260704600 _27_ RTR  --- 0 AODV 48 [0 ffffffff 14 800] ------- [20:255 -1:255 28 0] [0x2 3 1 [31 0] [0 4]] (REQUEST)
r 0.260704600 _13_ RTR  --- 0 AODV 48 [0 ffffffff 14 800] ------- [20:255 -1:255 28 0] [0x2 3 1 [31 0] [0 4]] (REQUEST)
r 0.260704667 _28_ RTR  --- 0 AODV 48 [0 ffffffff 14 800] ------- [20:255 -1:255 28 0] [0x2 3 1 [31 0] [0 4]] (REQUEST)
r 0.260704667 _12_ RTR  --- 0 AODV 48 [0 ffffffff 14 800] ------- [20:255 -1:255 28 0] [0x2 3 1 [31 0] [0 4]] (REQUEST)
r 0.260704734 _29_ RTR  --- 0 AODV 48 [0 ffffffff 14 800] ------- [20:255 -1:255 28 0] [0x2 3 1 [31 0] [0 4]] (REQUEST)
r 0.260704734 _11_ RTR  --- 0 AODV 48 [0 ffffffff 14 800] ------- [20:255 -1:255 28 0] [0x2 3 1 [31 0] [0 4]] (REQUEST)
r 0.260704800 _30_ RTR  --- 0 AODV 48 [0 ffffffff 14 800] ------- [20:255 -1:255 28 0] [0x2 3 1 [31 0] [0 4]] (REQUEST)
r 0.260704800 _10_ RTR  --- 0 AODV 48 [0 ffffffff 14 800] ------- [20:255 -1:255 28 0] [0x2 3 1 [31 0] [0 4]] (REQUEST)
r 0.260704867 _31_ RTR  --- 0 AODV 48 [0 ffffffff 14 800] ------- [20:255 -1:255 28 0] [0x2 3 1 [31 0] [0 4]] (REQUEST)
r 0.260704867 _9_ RTR  --- 0 AODV 48 [0 ffffffff 14 800] ------- [20:255 -1:255 28 0] [0x2 3 1 [31 0] [0 4]] (REQUEST)
r 0.260704934 _8_ RTR  --- 0 AODV 48 [0 ffffffff 14 800] ------- [20:255 -1:255 28 0] [0x2 3 1 [31 0] [0 4]] (REQUEST)
s 0.261117069 _23_ RTR  --- 0 AODV 48 [0 ffffffff c 800] ------- [23:255 -1:255 28 0] [0x2 3 1 [31 0] [0 4]] (REQUEST)
s 0.261266248 _17_ RTR  --- 0 AODV 48 [0 ffffffff c 800] ------- [17:255 -1:255 28 0] [0x2 3 1 [31 0] [0 4]] (REQUEST)
s 0.261493605 _29_ RTR  --- 0 AODV 48 [0 ffffffff 15 800] ------- [29:255 -1:255 27 0] [0x2 4 1 [31 0] [0 4]] (REQUEST)
r 0.261574934 _10_ RTR  --- 0 AODV 48 [0 ffffffff 9 800] ------- [9:255 -1:255 29 0] [0x2 2 1 [31 0] [0 4]] (REQUEST)
r 0.261574934 _8_ RTR  --- 0 AODV 48 [0 ffffffff 9 800] ------- [9:255 -1:255 29 0] [0x2 2 1 [31 0] [0 4]] (REQUEST)
r 0.261575000 _11_ RTR  --- 0 AODV 48 [0 ffffffff 9 800] ------- [9:255 -1:255 29 0] [0x2 2 1 [31 0] [0 4]] (REQUEST)
r 0.261575000 _7_ RTR  --- 0 AODV 48 [0 ffffffff 9 800] ------- [9:255 -1:255 29 0] [0x2 2 1 [31 0] [0 4]] (REQUEST)
r 0.261575067 _12_ RTR  --- 0 AODV 48 [0 ffffffff 9 800] ------- [9:255 -1:255 29 0] [0x2 2 1 [31 0] [0 4]] (REQUEST)
r 0.261575067 _6_ RTR  --- 0 AODV 48 [0 ffffffff 9 800] ------- [9:255 -1:255 29 0] [0x2 2 1 [31 0] [0 4]] (REQUEST)
r 0.261575134 _13_ RTR  --- 0 AODV 48 [0 ffffffff 9 800] ------- [9:255 -1:255 29 0] [0x2 2 1 [31 0] [0 4]] (REQUEST)
r 0.261575134 _5_ RTR  --- 0 AODV 48 [0 ffffffff 9 800] ------- [9:255 -1:255 29 0] [0x2 2 1 [31 0] [0 4]] (REQUEST)
r 0.261575200 _14_ RTR  --- 0 AODV 48 [0 ffffffff 9 800] ------- [9:255 -1:255 29 0] [0x2 2 1 [31 0] [0 4]] (REQUEST)
r 0.261575200 _4_ RTR  --- 0 AODV 48 [0 ffffffff 9 800] ------- [9:255 -1:255 29 0] [0x2 2 1 [31 0] [0 4]] (REQUEST)
r 0.261575267 _15_ RTR  --- 0 AODV 48 [0 ffffffff 9 800] ------- [9:255 -1:255 29 0] [0x2 2 1 [31 0] [0 4]] (REQUEST)
r 0.261575267 _3_ RTR  --- 0 AODV 48 [0 ffffffff 9 800] ------- [9:255 -1:255 29 0] [0x2 2 1 [31 0] [0 4]] (REQUEST)
r 0.261575334 _16_ RTR  --- 0 AODV 48 [0 ffffffff 9 800] ------- [9:255 -1:255 29 0] [0x2 2 1 [31 0] [0 4]] (REQUEST)
r 0.261575334 _2_ RTR  --- 0 AODV 48 [0 ffffffff 9 800] ------- [9:255 -1:255 29 0] [0x2 2 1 [31 0] [0 4]] (REQUEST)
r 0.261575400 _17_ RTR  --- 0 AODV 48 [0 ffffffff 9 800] ------- [9:255 -1:255 29 0] [0x2 2 1 [31 0] [0 4]] (REQUEST)
r 0.261575400 _1_ RTR  --- 0 AODV 48 [0 ffffffff 9 800] ------- [9:255 -1:255 29 0] [0x2 2 1 [31 0] [0 4]] (REQUEST)