s 0.100000000 _1_ AGT  --- 0 cbr 1000 [0 0 0 0] ------- [1:0 3:0 32 0] [0] 0 0
r 0.100000000 _1_ RTR  --- 0 cbr 1000 [0 0 0 0] ------- [1:0 3:0 32 0] [0] 0 0
s 0.100000000 _1_ RTR  --- 0 AODV 48 [0 0 0 0] ------- [1:255 -1:255 30 0] [0x2 1 1 [3 0] [1 4]] (REQUEST)
r 0.100900667 _0_ RTR  --- 0 AODV 48 [0 ffffffff 1 800] ------- [1:255 -1:255 30 0] [0x2 1 1 [3 0] [1 4]] (REQUEST)
s 0.101781893 _0_ RTR  --- 0 AODV 48 [0 ffffffff 1 800] ------- [0:255 -1:255 29 0] [0x2 2 1 [3 0] [1 4]] (REQUEST)
r 0.102682560 _4_ RTR  --- 0 AODV 48 [0 ffffffff 0 800] ------- [0:255 -1:255 29 0] [0x2 2 1 [3 0] [1 4]] (REQUEST)
r 0.102682560 _3_ RTR  --- 0 AODV 48 [0 ffffffff 0 800] ------- [0:255 -1:255 29 0] [0x2 2 1 [3 0] [1 4]] (REQUEST)
r 0.102682560 _2_ RTR  --- 0 AODV 48 [0 ffffffff 0 800] ------- [0:255 -1:255 29 0] [0x2 2 1 [3 0] [1 4]] (REQUEST)
r 0.102682560 _1_ RTR  --- 0 AODV 48 [0 ffffffff 0 800] ------- [0:255 -1:255 29 0] [0x2 2 1 [3 0] [1 4]] (REQUEST)
s 0.102682560 _3_ RTR  --- 0 AODV 44 [0 0 0 0] ------- [3:255 1:255 30 0] [0x4 1 [3 2] 10.000000] (REPLY)
s 0.105812178 _2_ RTR  --- 0 AODV 48 [0 ffffffff 0 800] ------- [2:255 -1:255 28 0] [0x2 3 1 [3 0] [1 4]] (REQUEST)
r 0.105950318 _0_ RTR  --- 0 AODV 44 [13a 0 3 800] ------- [3:255 1:255 30 0] [0x4 1 [3 2] 10.000000] (REPLY)
f 0.105950318 _0_ RTR  --- 0 AODV 44 [13a 0 3 800] ------- [3:255 1:255 29 1] [0x4 2 [3 2] 10.000000] (REPLY)
r 0.109555654 _0_ RTR  --- 0 AODV 48 [0 ffffffff 2 800] ------- [2:255 -1:255 28 0] [0x2 3 1 [3 0] [1 4]] (REQUEST)
s 0.110000000 _1_ AGT  --- 1 cbr 1000 [0 0 0 0] ------- [1:0 3:0 32 0] [1] 0 0
r 0.110000000 _1_ RTR  --- 1 cbr 1000 [0 0 0 0] ------- [1:0 3:0 32 0] [1] 0 0
r 0.110548018 _1_ RTR  --- 0 AODV 44 [13a 1 0 800] ------- [3:255 1:255 29 1] [0x4 2 [3 2] 10.000000] (REPLY)
s 0.110548018 _1_ RTR  --- 0 cbr 1020 [0 0 0 0] ------- [1:0 3:0 30 0] [0] 0 0
s 0.110674115 _4_ RTR  --- 0 AODV 48 [0 ffffffff 0 800] ------- [4:255 -1:255 28 0] [0x2 3 1 [3 0] [1 4]] (REQUEST)
r 0.112704200 _0_ RTR  --- 0 cbr 1020 [13a 0 1 800] ------- [1:0 3:0 30 0] [0] 1 0
f 0.112704200 _0_ RTR  --- 0 cbr 1020 [13a 0 1 800] ------- [1:0 3:0 29 3] [0] 1 0
r 0.114780381 _3_ AGT  --- 0 cbr 1020 [13a 3 0 800] ------- [1:0 3:0 29 3] [0] 2 0
r 0.116649991 _0_ RTR  --- 0 AODV 48 [0 ffffffff 4 800] ------- [4:255 -1:255 28 0] [0x2 3 1 [3 0] [1 4]] (REQUEST)
s 0.120000000 _1_ AGT  --- 2 cbr 1000 [0 0 0 0] ------- [1:0 3:0 32 0] [2] 0 0
r 0.120000000 _1_ RTR  --- 2 cbr 1000 [0 0 0 0] ------- [1:0 3:0 32 0] [2] 0 0
s 0.120000000 _1_ RTR  --- 2 cbr 1020 [0 0 0 0] ------- [1:0 3:0 30 0] [2] 0 0
s 0.120548018 _1_ RTR  --- 1 cbr 1020 [0 0 0 0] ------- [1:0 3:0 30 0] [1] 0 0
r 0.121732182 _0_ RTR  --- 2 cbr 1020 [13a 0 1 800] ------- [1:0 3:0 30 0] [2] 1 0
f 0.121732182 _0_ RTR  --- 2 cbr 1020 [13a 0 1 800] ------- [1:0 3:0 29 3] [2] 1 0
r 0.123929030 _0_ RTR  --- 1 cbr 1020 [13a 0 1 800] ------- [1:0 3:0 30 0] [1] 1 0
f 0.123929030 _0_ RTR  --- 1 cbr 1020 [13a 0 1 800] ------- [1:0 3:0 29 3] [1] 1 0
r 0.126045212 _3_ AGT  --- 2 cbr 1020 [13a 3 0 800] ------- [1:0 3:0 29 3] [2] 2 0
r 0.128062061 _3_ AGT  --- 1 cbr 1020 [13a 3 0 800] ------- [1:0 3:0 29 3] [1] 2 0
s 0.130000000 _1_ AGT  --- 3 cbr 1000 [0 0 0 0] ------- [1:0 3:0 32 0] [3] 0 0
r 0.130000000 _1_ RTR  --- 3 cbr 1000 [0 0 0 0] ------- [1:0 3:0 32 0] [3] 0 0
s 0.130000000 _1_ RTR  --- 3 cbr 1020 [0 0 0 0] ------- [1:0 3:0 30 0] [3] 0 0
r 0.131732182 _0_ RTR  --- 3 cbr 1020 [13a 0 1 800] ------- [1:0 3:0 30 0] [3] 1 0
f 0.131732182 _0_ RTR  --- 3 cbr 1020 [13a 0 1 800] ------- [1:0 3:0 29 3] [3] 1 0
r 0.134168364 _3_ AGT  --- 3 cbr 1020 [13a 3 0 800] ------- [1:0 3:0 29 3] [3] 2 0
s 0.140000000 _1_ AGT  --- 4 cbr 1000 [0 0 0 0] ------- [1:0 3:0 32 0] [4] 0 0
r 0.140000000 _1_ RTR  --- 4 cbr 1000 [0 0 0 0] ------- [1:0 3:0 32 0] [4] 0 0
s 0.140000000 _1_ RTR  --- 4 cbr 1020 [0 0 0 0] ------- [1:0 3:0 30 0] [4] 0 0
r 0.141732182 _0_ RTR  --- 4 cbr 1020 [13a 0 1 800] ------- [1:0 3:0 30 0] [4] 1 0
f 0.141732182 _0_ RTR  --- 4 cbr 1020 [13a 0 1 800] ------- [1:0 3:0 29 3] [4] 1 0
r 0.144128364 _3_ AGT  --- 4 cbr 1020 [13a 3 0 800] ------- [1:0 3:0 29 3] [4] 2 0
s 0.150000000 _1_ AGT  --- 5 cbr 1000 [0 0 0 0] ------- [1:0 3:0 32 0] [5] 0 0
r 0.150000000 _1_ RTR  --- 5 cbr 1000 [0 0 0 0] ------- [1:0 3:0 32 0] [5] 0 0
s 0.150000000 _1_ RTR  --- 5 cbr 1020 [0 0 0 0] ------- [1:0 3:0 30 0] [5] 0 0
r 0.151732182 _0_ RTR  --- 5 cbr 1020 [13a 0 1 800] ------- [1:0 3:0 30 0] [5] 1 0
f 0.151732182 _0_ RTR  --- 5 cbr 1020 [13a 0 1 800] ------- [1:0 3:0 29 3] [5] 1 0
r 0.153768364 _3_ AGT  --- 5 cbr 1020 [13a 3 0 800] ------- [1:0 3:0 29 3] [5] 2 0
s 0.160000000 _1_ AGT  --- 6 cbr 1000 [0 0 0 0] ------- [1:0 3:0 32 0] [6] 0 0
r 0.160000000 _1_ RTR  --- 6 cbr 1000 [0 0 0 0] ------- [1:0 3:0 32 0] [6] 0 0
s 0.160000000 _1_ RTR  --- 6 cbr 1020 [0 0 0 0] ------- [1:0 3:0 30 0] [6] 0 0
r 0.161732182 _0_ RTR  --- 6 cbr 1020 [13a 0 1 800] ------- [1:0 3:0 30 0] [6] 1 0
f 0.161732182 _0_ RTR  --- 6 cbr 1020 [13a 0 1 800] ------- [1:0 3:0 29 3] [6] 1 0
r 0.163868364 _3_ AGT  --- 6 cbr 1020 [13a 3 0 800] ------- [1:0 3:0 29 3] [6] 2 0
s 0.170000000 _1_ AGT  --- 7 cbr 1000 [0 0 0 0] ------- [1:0 3:0 32 0] [7] 0 0
r 0.170000000 _1_ RTR  --- 7 cbr 1000 [0 0 0 0] ------- [1:0 3:0 32 0] [7] 0 0
s 0.170000000 _1_ RTR  --- 7 cbr 1020 [0 0 0 0] ------- [1:0 3:0 30 0] [7] 0 0
r 0.171732182 _0_ RTR  --- 7 cbr 1020 [13a 0 1 800] ------- [1:0 3:0 30 0] [7] 1 0
f 0.171732182 _0_ RTR  --- 7 cbr 1020 [13a 0 1 800] ------- [1:0 3:0 29 3] [7] 1 0
r 0.173928364 _3_ AGT  --- 7 cbr 1020 [13a 3 0 800] ------- [1:0 3:0 29 3] [7] 2 0
s 0.180000000 _1_ AGT  --- 8 cbr 1000 [0 0 0 0] ------- [1:0 3:0 32 0] [8] 0 0
r 0.180000000 _1_ RTR  --- 8 cbr 1000 [0 0 0 0] ------- [1:0 3:0 32 0] [8] 0 0
s 0.180000000 _1_ RTR  --- 8 cbr 1020 [0 0 0 0] ------- [1:0 3:0 30 0] [8] 0 0
r 0.181732182 _0_ RTR  --- 8 cbr 1020 [13a 0 1 800] ------- [1:0 3:0 30 0] [8] 1 0
f 0.181732182 _0_ RTR  --- 8 cbr 1020 [13a 0 1 800] ------- [1:0 3:0 29 3] [8] 1 0
r 0.183948364 _3_ AGT  --- 8 cbr 1020 [13a 3 0 800] ------- [1:0 3:0 29 3] [8] 2 0
s 0.190000000 _1_ AGT  --- 9 cbr 1000 [0 0 0 0] ------- [1:0 3:0 32 0] [9] 0 0
r 0.190000000 _1_ RTR  --- 9 cbr 1000 [0 0 0 0] ------- [1:0 3:0 32 0] [9] 0 0
s 0.190000000 _1_ RTR  --- 9 cbr 1020 [0 0 0 0] ------- [1:0 3:0 30 0] [9] 0 0
r 0.191732182 _0_ RTR  --- 9 cbr 1020 [13a 0 1 800] ------- [1:0 3:0 30 0] [9] 1 0
f 0.191732182 _0_ RTR  --- 9 cbr 1020 [13a 0 1 800] ------- [1:0 3:0 29 3] [9] 1 0
r 0.193788364 _3_ AGT  --- 9 cbr 1020 [13a 3 0 800] ------- [1:0 3:0 29 3] [9] 2 0
s 0.200000000 _1_ AGT  --- 10 cbr 1000 [0 0 0 0] ------- [1:0 3:0 32 0] [10] 0 0
r 0.200000000 _1_ RTR  --- 10 cbr 1000 [0 0 0 0] ------- [1:0 3:0 32 0] [10] 0 0
s 0.200000000 _1_ RTR  --- 10 cbr 1020 [0 0 0 0] ------- [1:0 3:0 30 0] [10] 0 0
r 0.201732182 _0_ RTR  --- 10 cbr 1020 [13a 0 1 800] ------- [1:0 3:0 30 0] [10] 1 0
f 0.201732182 _0_ RTR  --- 10 cbr 1020 [13a 0 1 800] ------- [1:0 3:0 29 3] [10] 1 0
r 0.204228364 _3_ AGT  --- 10 cbr 1020 [13a 3 0 800] ------- [1:0 3:0 29 3] [10] 2 0
s 0.210000000 _1_ AGT  --- 11 cbr 1000 [0 0 0 0] ------- [1:0 3:0 32 0] [11] 0 0
r 0.210000000 _1_ RTR  --- 11 cbr 1000 [0 0 0 0] ------- [1:0 3:0 32 0] [11] 0 0
s 0.210000000 _1_ RTR  --- 11 cbr 1020 [0 0 0 0] ------- [1:0 3:0 30 0] [11] 0 0
r 0.211732182 _0_ RTR  --- 11 cbr 1020 [13a 0 1 800] ------- [1:0 3:0 30 0] [11] 1 0
f 0.211732182 _0_ RTR  --- 11 cbr 1020 [13a 0 1 800] ------- [1:0 3:0 29 3] [11] 1 0
r 0.214008364 _3_ AGT  --- 11 cbr 1020 [13a 3 0 800] ------- [1:0 3:0 29 3] [11] 2 0
s 0.220000000 _1_ AGT  --- 12 cbr 1000 [0 0 0 0] ------- [1:0 3:0 32 0] [12] 0 0
r 0.220000000 _1_ RTR  --- 12 cbr 1000 [0 0 0 0] ------- [1:0 3:0 32 0] [12] 0 0
s 0.220000000 _1_ RTR  --- 12 cbr 1020 [0 0 0 0] ------- [1:0 3:0 30 0] [12] 0 0
r 0.221732182 _0_ RTR  --- 12 cbr 1020 [13a 0 1 800] ------- [1:0 3:0 30 0] [12] 1 0
f 0.221732182 _0_ RTR  --- 12 cbr 1020 [13a 0 1 800] ------- [1:0 3:0 29 3] [12] 1 0
r 0.223948364 _3_ AGT  --- 12 cbr 1020 [13a 3 0 800] ------- [1:0 3:0 29 3] [12] 2 0
s 0.230000000 _1_ AGT  --- 13 cbr 1000 [0 0 0 0] ------- [1:0 3:0 32 0] [13] 0 0
r 0.230000000 _1_ RTR  --- 13 cbr 1000 [0 0 0 0] ------- [1:0 3:0 32 0] [13] 0 0
s 0.230000000 _1_ RTR  --- 13 cbr 1020 [0 0 0 0] ------- [1:0 3:0 30 0] [13] 0 0
r 0.231732182 _0_ RTR  --- 13 cbr 1020 [13a 0 1 800] ------- [1:0 3:0 30 0] [13] 1 0
f 0.231732182 _0_ RTR  --- 13 cbr 1020 [13a 0 1 800] ------- [1:0 3:0 29 3] [13] 1 0
r 0.233948364 _3_ AGT  --- 13 cbr 1020 [13a 3 0 800] ------- [1:0 3:0 29 3] [13] 2 0
s 0.240000000 _1_ AGT  --- 14 cbr 1000 [0 0 0 0] ------- [1:0 3:0 32 0] [14] 0 0
r 0.240000000 _1_ RTR  --- 14 cbr 1000 [0 0 0 0] ------- [1:0 3:0 32 0] [14] 0 0
s 0.240000000 _1_ RTR  --- 14 cbr 1020 [0 0 0 0] ------- [1:0 3:0 30 0] [14] 0 0
r 0.241732182 _0_ RTR  --- 14 cbr 1020 [13a 0 1 800] ------- [1:0 3:0 30 0] [14] 1 0
f 0.241732182 _0_ RTR  --- 14 cbr 1020 [13a 0 1 800] ------- [1:0 3:0 29 3] [14] 1 0
r 0.243728364 _3_ AGT  --- 14 cbr 1020 [13a 3 0 800] ------- [1:0 3:0 29 3] [14] 2 0
s 0.250000000 _1_ AGT  --- 15 cbr 1000 [0 0 0 0] ------- [1:0 3:0 32 0] [15] 0 0
r 0.250000000 _1_ RTR  --- 15 cbr 1000 [0 0 0 0] ------- [1:0 3:0 32 0] [15] 0 0
s 0.250000000 _1_ RTR  --- 15 cbr 1020 [0 0 0 0] ------- [1:0 3:0 30 0] [15] 0 0
r 0.251732182 _0_ RTR  --- 15 cbr 1020 [13a 0 1 800] ------- [1:0 3:0 30 0] [15] 1 0
f 0.251732182 _0_ RTR  --- 15 cbr 1020 [13a 0 1 800] ------- [1:0 3:0 29 3] [15] 1 0
r 0.254008364 _3_ AGT  --- 15 cbr 1020 [13a 3 0 800] ------- [1:0 3:0 29 3] [15] 2 0
s 0.260000000 _1_ AGT  --- 16 cbr 1000 [0 0 0 0] ------- [1:0 3:0 32 0] [16] 0 0
r 0.260000000 _1_ RTR  --- 16 cbr 1000 [0 0 0 0] ------- [1:0 3:0 32 0] [16] 0 0
s 0.260000000 _1_ RTR  --- 16 cbr 1020 [0 0 0 0] ------- [1:0 3:0 30 0] [16] 0 0
r 0.261732182 _0_ RTR  --- 16 cbr 1020 [13a 0 1 800] ------- [1:0 3:0 30 0] [16] 1 0
f 0.261732182 _0_ RTR  --- 16 cbr 1020 [13a 0 1 800] ------- [1:0 3:0 29 3] [16] 1 0
r 0.263968364 _3_ AGT  --- 16 cbr 1020 [13a 3 0 800] ------- [1:0 3:0 29 3] [16] 2 0
s 0.270000000 _1_ AGT  --- 17 cbr 1000 [0 0 0 0] ------- [1:0 3:0 32 0] [17] 0 0
r 0.270000000 _1_ RTR  --- 17 cbr 1000 [0 0 0 0] ------- [1:0 3:0 32 0] [17] 0 0
s 0.270000000 _1_ RTR  --- 17 cbr 1020 [0 0 0 0] ------- [1:0 3:0 30 0] [17] 0 0
r 0.271732182 _0_ RTR  --- 17 cbr 1020 [13a 0 1 800] ------- [1:0 3:0 30 0] [17] 1 0
f 0.271732182 _0_ RTR  --- 17 cbr 1020 [13a 0 1 800] ------- [1:0 3:0 29 3] [17] 1 0
r 0.273768364 _3_ AGT  --- 17 cbr 1020 [13a 3 0 800] ------- [1:0 3:0 29 3] [17] 2 0
s 0.280000000 _1_ AGT  --- 18 cbr 1000 [0 0 0 0] ------- [1:0 3:0 32 0] [18] 0 0
r 0.280000000 _1_ RTR  --- 18 cbr 1000 [0 0 0 0] ------- [1:0 3:0 32 0] [18] 0 0
s 0.280000000 _1_ RTR  --- 18 cbr 1020 [0 0 0 0] ------- [1:0 3:0 30 0] [18] 0 0
r 0.281732182 _0_ RTR  --- 18 cbr 1020 [13a 0 1 800] ------- [1:0 3:0 30 0] [18] 1 0
f 0.281732182 _0_ RTR  --- 18 cbr 1020 [13a 0 1 800] ------- [1:0 3:0 29 3] [18] 1 0
r 0.283928364 _3_ AGT  --- 18 cbr 1020 [13a 3 0 800] ------- [1:0 3:0 29 3] [18] 2 0
s 0.290000000 _1_ AGT  --- 19 cbr 1000 [0 0 0 0] ------- [1:0 3:0 32 0] [19] 0 0
r 0.290000000 _1_ RTR  --- 19 cbr 1000 [0 0 0 0] ------- [1:0 3:0 32 0] [19] 0 0
s 0.290000000 _1_ RTR  --- 19 cbr 1020 [0 0 0 0] ------- [1:0 3:0 30 0] [19] 0 0
r 0.291732182 _0_ RTR  --- 19 cbr 1020 [13a 0 1 800] ------- [1:0 3:0 30 0] [19] 1 0
f 0.291732182 _0_ RTR  --- 19 cbr 1020 [13a 0 1 800] ------- [1:0 3:0 29 3] [19] 1 0
r 0.293988364 _3_ AGT  --- 19 cbr 1020 [13a 3 0 800] ------- [1:0 3:0 29 3] [19] 2 0
s 0.300000000 _2_ AGT  --- 20 tcp 40 [0 0 0 0] ------- [2:0 4:0 32 0] [0 0] 0 0
r 0.300000000 _2_ RTR  --- 20 tcp 40 [0 0 0 0] ------- [2:0 4:0 32 0] [0 0] 0 0
s 0.300000000 _2_ RTR  --- 0 AODV 48 [0 0 0 0] ------- [2:255 -1:255 30 0] [0x2 1 1 [4 0] [2 4]] (REQUEST)
s 0.300000000 _1_ AGT  --- 21 cbr 1000 [0 0 0 0] ------- [1:0 3:0 32 0] [20] 0 0
r 0.300000000 _1_ RTR  --- 21 cbr 1000 [0 0 0 0] ------- [1:0 3:0 32 0] [20] 0 0
s 0.300000000 _1_ RTR  --- 21 cbr 1020 [0 0 0 0] ------- [1:0 3:0 30 0] [20] 0 0
r 0.303527125 _0_ RTR  --- 21 cbr 1020 [13a 0 1 800] ------- [1:0 3:0 30 0] [20] 1 0
f 0.303527125 _0_ RTR  --- 21 cbr 1020 [13a 0 1 800] ------- [1:0 3:0 29 3] [20] 1 0
r 0.305643306 _3_ AGT  --- 21 cbr 1020 [13a 3 0 800] ------- [1:0 3:0 29 3] [20] 2 0
s 0.310000000 _1_ AGT  --- 22 cbr 1000 [0 0 0 0] ------- [1:0 3:0 32 0] [21] 0 0
r 0.310000000 _1_ RTR  --- 22 cbr 1000 [0 0 0 0] ------- [1:0 3:0 32 0] [21] 0 0
s 0.310000000 _1_ RTR  --- 22 cbr 1020 [0 0 0 0] ------- [1:0 3:0 30 0] [21] 0 0
r 0.311732182 _0_ RTR  --- 22 cbr 1020 [13a 0 1 800] ------- [1:0 3:0 30 0] [21] 1 0
f 0.311732182 _0_ RTR  --- 22 cbr 1020 [13a 0 1 800] ------- [1:0 3:0 29 3] [21] 1 0
r 0.313848364 _3_ AGT  --- 22 cbr 1020 [13a 3 0 800] ------- [1:0 3:0 29 3] [21] 2 0
s 0.320000000 _1_ AGT  --- 23 cbr 1000 [0 0 0 0] ------- [1:0 3:0 32 0] [22] 0 0
r 0.320000000 _1_ RTR  --- 23 cbr 1000 [0 0 0 0] ------- [1:0 3:0 32 0] [22] 0 0
s 0.320000000 _1_ RTR  --- 23 cbr 1020 [0 0 0 0] ------- [1:0 3:0 30 0] [22] 0 0
r 0.321732182 _0_ RTR  --- 23 cbr 1020 [13a 0 1 800] ------- [1:0 3:0 30 0] [22] 1 0
f 0.321732182 _0_ RTR  --- 23 cbr 1020 [13a 0 1 800] ------- [1:0 3:0 29 3] [22] 1 0
r 0.324268364 _3_ AGT  --- 23 cbr 1020 [13a 3 0 800] ------- [1:0 3:0 29 3] [22] 2 0
s 0.330000000 _1_ AGT  --- 24 cbr 1000 [0 0 0 0] ------- [1:0 3:0 32 0] [23] 0 0
r 0.330000000 _1_ RTR  --- 24 cbr 1000 [0 0 0 0] ------- [1:0 3:0 32 0] [23] 0 0
s 0.330000000 _1_ RTR  --- 24 cbr 1020 [0 0 0 0] ------- [1:0 3:0 30 0] [23] 0 0
r 0.331732182 _0_ RTR  --- 24 cbr 1020 [13a 0 1 800] ------- [1:0 3:0 30 0] [23] 1 0
f 0.331732182 _0_ RTR  --- 24 cbr 1020 [13a 0 1 800] ------- [1:0 3:0 29 3] [23] 1 0
r 0.334028364 _3_ AGT  --- 24 cbr 1020 [13a 3 0 800] ------- [1:0 3:0 29 3] [23] 2 0
s 0.340000000 _1_ AGT  --- 25 cbr 1000 [0 0 0 0] ------- [1:0 3:0 32 0] [24] 0 0
r 0.340000000 _1_ RTR  --- 25 cbr 1000 [0 0 0 0] ------- [1:0 3:0 32 0] [24] 0 0
s 0.340000000 _1_ RTR  --- 25 cbr 1020 [0 0 0 0] ------- [1:0 3:0 30 0] [24] 0 0
r 0.341732182 _0_ RTR  --- 25 cbr 1020 [13a 0 1 800] ------- [1:0 3:0 30 0] [24] 1 0
f 0.341732182 _0_ RTR  --- 25 cbr 1020 [13a 0 1 800] ------- [1:0 3:0 29 3] [24] 1 0
r 0.344308364 _3_ AGT  --- 25 cbr 1020 [13a 3 0 800] ------- [1:0 3:0 29 3] [24] 2 0
s 0.350000000 _1_ AGT  --- 26 cbr 1000 [0 0 0 0] ------- [1:0 3:0 32 0] [25] 0 0
r 0.350000000 _1_ RTR  --- 26 cbr 1000 [0 0 0 0] ------- [1:0 3:0 32 0] [25] 0 0
s 0.350000000 _1_ RTR  --- 26 cbr 1020 [0 0 0 0] ------- [1:0 3:0 30 0] [25] 0 0
r 0.351732182 _0_ RTR  --- 26 cbr 1020 [13a 0 1 800] ------- [1:0 3:0 30 0] [25] 1 0
f 0.351732182 _0_ RTR  --- 26 cbr 1020 [13a 0 1 800] ------- [1:0 3:0 29 3] [25] 1 0
r 0.353888364 _3_ AGT  --- 26 cbr 1020 [13a 3 0 800] ------- [1:0 3:0 29 3] [25] 2 0
s 0.360000000 _1_ AGT  --- 27 cbr 1000 [0 0 0 0] ------- [1:0 3:0 32 0] [26] 0 0
r 0.360000000 _1_ RTR  --- 27 cbr 1000 [0 0 0 0] ------- [1:0 3:0 32 0] [26] 0 0
s 0.360000000 _1_ RTR  --- 27 cbr 1020 [0 0 0 0] ------- [1:0 3:0 30 0] [26] 0 0
r 0.361732182 _0_ RTR  --- 27 cbr 1020 [13a 0 1 800] ------- [1:0 3:0 30 0] [26] 1 0
f 0.361732182 _0_ RTR  --- 27 cbr 1020 [13a 0 1 800] ------- [1:0 3:0 29 3] [26] 1 0
r 0.363848364 _3_ AGT  --- 27 cbr 1020 [13a 3 0 800] ------- [1:0 3:0 29 3] [26] 2 0
s 0.370000000 _1_ AGT  --- 28 cbr 1000 [0 0 0 0] ------- [1:0 3:0 32 0] [27] 0 0
r 0.370000000 _1_ RTR  --- 28 cbr 1000 [0 0 0 0] ------- [1:0 3:0 32 0] [27] 0 0
s 0.370000000 _1_ RTR  --- 28 cbr 1020 [0 0 0 0] ------- [1:0 3:0 30 0] [27] 0 0
r 0.371732182 _0_ RTR  --- 28 cbr 1020 [13a 0 1 800] ------- [1:0 3:0 30 0] [27] 1 0
f 0.371732182 _0_ RTR  --- 28 cbr 1020 [13a 0 1 800] ------- [1:0 3:0 29 3] [27] 1 0
r 0.373728364 _3_ AGT  --- 28 cbr 1020 [13a 3 0 800] ------- [1:0 3:0 29 3] [27] 2 0
s 0.380000000 _1_ AGT  --- 29 cbr 1000 [0 0 0 0] ------- [1:0 3:0 32 0] [28] 0 0
r 0.380000000 _1_ RTR  --- 29 cbr 1000 [0 0 0 0] ------- [1:0 3:0 32 0] [28] 0 0
s 0.380000000 _1_ RTR  --- 29 cbr 1020 [0 0 0 0] ------- [1:0 3:0 30 0] [28] 0 0
r 0.381732182 _0_ RTR  --- 29 cbr 1020 [13a 0 1 800] ------- [1:0 3:0 30 0] [28] 1 0
f 0.381732182 _0_ RTR  --- 29 cbr 1020 [13a 0 1 800] ------- [1:0 3:0 29 3] [28] 1 0
r 0.384048364 _3_ AGT  --- 29 cbr 1020 [13a 3 0 800] ------- [1:0 3:0 29 3] [28] 2 0
s 0.390000000 _1_ AGT  --- 30 cbr 1000 [0 0 0 0] ------- [1:0 3:0 32 0] [29] 0 0
r 0.390000000 _1_ RTR  --- 30 cbr 1000 [0 0 0 0] ------- [1:0 3:0 32 0] [29] 0 0
s 0.390000000 _1_ RTR  --- 30 cbr 1020 [0 0 0 0] ------- [1:0 3:0 30 0] [29] 0 0
r 0.391732182 _0_ RTR  --- 30 cbr 1020 [13a 0 1 800] ------- [1:0 3:0 30 0] [29] 1 0
f 0.391732182 _0_ RTR  --- 30 cbr 1020 [13a 0 1 800] ------- [1:0 3:0 29 3] [29] 1 0
r 0.394048364 _3_ AGT  --- 30 cbr 1020 [13a 3 0 800] ------- [1:0 3:0 29 3] [29] 2 0
s 0.400000000 _1_ AGT  --- 31 cbr 1000 [0 0 0 0] ------- [1:0 3:0 32 0] [30] 0 0
r 0.400000000 _1_ RTR  --- 31 cbr 1000 [0 0 0 0] ------- [1:0 3:0 32 0] [30] 0 0
s 0.400000000 _1_ RTR  --- 31 cbr 1020 [0 0 0 0] ------- [1:0 3:0 30 0] [30] 0 0
r 0.401732182 _0_ RTR  --- 31 cbr 1020 [13a 0 1 800] ------- [1:0 3:0 30 0] [30] 1 0
f 0.401732182 _0_ RTR  --- 31 cbr 1020 [13a 0 1 800] ------- [1:0 3:0 29 3] [30] 1 0
r 0.403988364 _3_ AGT  --- 31 cbr 1020 [13a 3 0 800] ------- [1:0 3:0 29 3] [30] 2 0
s 0.410000000 _1_ AGT  --- 32 cbr 1000 [0 0 0 0] ------- [1:0 3:0 32 0] [31] 0 0
r 0.410000000 _1_ RTR  --- 32 cbr 1000 [0 0 0 0] ------- [1:0 3:0 32 0] [31] 0 0
s 0.410000000 _1_ RTR  --- 32 cbr 1020 [0 0 0 0] ------- [1:0 3:0 30 0] [31] 0 0
r 0.411732182 _0_ RTR  --- 32 cbr 1020 [13a 0 1 800] ------- [1:0 3:0 30 0] [31] 1 0
f 0.411732182 _0_ RTR  --- 32 cbr 1020 [13a 0 1 800] ------- [1:0 3:0 29 3] [31] 1 0
r 0.413788364 _3_ AGT  --- 32 cbr 1020 [13a 3 0 800] ------- [1:0 3:0 29 3] [31] 2 0
s 0.420000000 _1_ AGT  --- 33 cbr 1000 [0 0 0 0] ------- [1:0 3:0 32 0] [32] 0 0
r 0.420000000 _1_ RTR  --- 33 cbr 1000 [0 0 0 0] ------- [1:0 3:0 32 0] [32] 0 0
s 0.420000000 _1_ RTR  --- 33 cbr 1020 [0 0 0 0] ------- [1:0 3:0 30 0] [32] 0 0
r 0.421732182 _0_ RTR  --- 33 cbr 1020 [13a 0 1 800] ------- [1:0 3:0 30 0] [32] 1 0
f 0.421732182 _0_ RTR  --- 33 cbr 1020 [13a 0 1 800] ------- [1:0 3:0 29 3] [32] 1 0
r 0.424148364 _3_ AGT  --- 33 cbr 1020 [13a 3 0 800] ------- [1:0 3:0 29 3] [32] 2 0
s 0.430000000 _1_ AGT  --- 34 cbr 1000 [0 0 0 0] ------- [1:0 3:0 32 0] [33] 0 0
r 0.430000000 _1_ RTR  --- 34 cbr 1000 [0 0 0 0] ------- [1:0 3:0 32 0] [33] 0 0
s 0.430000000 _1_ RTR  --- 34 cbr 1020 [0 0 0 0] ------- [1:0 3:0 30 0] [33] 0 0
r 0.431732182 _0_ RTR  --- 34 cbr 1020 [13a 0 1 800] ------- [1:0 3:0 30 0] [33] 1 0
f 0.431732182 _0_ RTR  --- 34 cbr 1020 [13a 0 1 800] ------- [1:0 3:0 29 3] [33] 1 0
r 0.433788364 _3_ AGT  --- 34 cbr 1020 [13a 3 0 800] ------- [1:0 3:0 29 3] [33] 2 0
s 0.440000000 _1_ AGT  --- 35 cbr 1000 [0 0 0 0] ------- [1:0 3:0 32 0] [34] 0 0
r 0.440000000 _1_ RTR  --- 35 cbr 1000 [0 0 0 0] ------- [1:0 3:0 32 0] [34] 0 0
s 0.440000000 _1_ RTR  --- 35 cbr 1020 [0 0 0 0] ------- [1:0 3:0 30 0] [34] 0 0
r 0.441732182 _0_ RTR  --- 35 cbr 1020 [13a 0 1 800] ------- [1:0 3:0 30 0] [34] 1 0
f 0.441732182 _0_ RTR  --- 35 cbr 1020 [13a 0 1 800] ------- [1:0 3:0 29 3] [34] 1 0
r 0.443748364 _3_ AGT  --- 35 cbr 1020 [13a 3 0 800] ------- [1:0 3:0 29 3] [34] 2 0
s 0.450000000 _1_ AGT  --- 36 cbr 1000 [0 0 0 0] ------- [1:0 3:0 32 0] [35] 0 0
r 0.450000000 _1_ RTR  --- 36 cbr 1000 [0 0 0 0] ------- [1:0 3:0 32 0] [35] 0 0
s 0.450000000 _1_ RTR  --- 36 cbr 1020 [0 0 0 0] ------- [1:0 3:0 30 0] [35] 0 0
r 0.451732182 _0_ RTR  --- 36 cbr 1020 [13a 0 1 800] ------- [1:0 3:0 30 0] [35] 1 0
f 0.451732182 _0_ RTR  --- 36 cbr 1020 [13a 0 1 800] ------- [1:0 3:0 29 3] [35] 1 0
r 0.454108364 _3_ AGT  --- 36 cbr 1020 [13a 3 0 800] ------- [1:0 3:0 29 3] [35] 2 0
s 0.460000000 _1_ AGT  --- 37 cbr 1000 [0 0 0 0] ------- [1:0 3:0 32 0] [36] 0 0
r 0.460000000 _1_ RTR  --- 37 cbr 1000 [0 0 0 0] ------- [1:0 3:0 32 0] [36] 0 0
s 0.460000000 _1_ RTR  --- 37 cbr 1020 [0 0 0 0] ------- [1:0 3:0 30 0] [36] 0 0
r 0.461732182 _0_ RTR  --- 37 cbr 1020 [13a 0 1 800] ------- [1:0 3:0 30 0] [36] 1 0
f 0.461732182 _0_ RTR  --- 37 cbr 1020 [13a 0 1 800] ------- [1:0 3:0 29 3] [36] 1 0
r 0.463908364 _3_ AGT  --- 37 cbr 1020 [13a 3 0 800] ------- [1:0 3:0 29 3] [36] 2 0
s 0.470000000 _1_ AGT  --- 38 cbr 1000 [0 0 0 0] ------- [1:0 3:0 32 0] [37] 0 0
r 0.470000000 _1_ RTR  --- 38 cbr 1000 [0 0 0 0] ------- [1:0 3:0 32 0] [37] 0 0
s 0.470000000 _1_ RTR  --- 38 cbr 1020 [0 0 0 0] ------- [1:0 3:0 30 0] [37] 0 0
r 0.471732182 _0_ RTR  --- 38 cbr 1020 [13a 0 1 800] ------- [1:0 3:0 30 0] [37] 1 0
f 0.471732182 _0_ RTR  --- 38 cbr 1020 [13a 0 1 800] ------- [1:0 3:0 29 3] [37] 1 0
r 0.473868364 _3_ AGT  --- 38 cbr 1020 [13a 3 0 800] ------- [1:0 3:0 29 3] [37] 2 0
s 0.480000000 _1_ AGT  --- 39 cbr 1000 [0 0 0 0] ------- [1:0 3:0 32 0] [38] 0 0
r 0.480000000 _1_ RTR  --- 39 cbr 1000 [0 0 0 0] ------- [1:0 3:0 32 0] [38] 0 0
s 0.480000000 _1_ RTR  --- 39 cbr 1020 [0 0 0 0] ------- [1:0 3:0 30 0] [38] 0 0
r 0.481732182 _0_ RTR  --- 39 cbr 1020 [13a 0 1 800] ------- [1:0 3:0 30 0] [38] 1 0
f 0.481732182 _0_ RTR  --- 39 cbr 1020 [13a 0 1 800] ------- [1:0 3:0 29 3] [38] 1 0
r 0.483828364 _3_ AGT  --- 39 cbr 1020 [13a 3 0 800] ------- [1:0 3:0 29 3] [38] 2 0
s 0.490000000 _1_ AGT  --- 40 cbr 1000 [0 0 0 0] ------- [1:0 3:0 32 0] [39] 0 0
r 0.490000000 _1_ RTR  --- 40 cbr 1000 [0 0 0 0] ------- [1:0 3:0 32 0] [39] 0 0
s 0.490000000 _1_ RTR  --- 40 cbr 1020 [0 0 0 0] ------- [1:0 3:0 30 0] [39] 0 0
r 0.491732182 _0_ RTR  --- 40 cbr 1020 [13a 0 1 800] ------- [1:0 3:0 30 0] [39] 1 0
f 0.491732182 _0_ RTR  --- 40 cbr 1020 [13a 0 1 800] ------- [1:0 3:0 29 3] [39] 1 0
r 0.494288364 _3_ AGT  --- 40 cbr 1020 [13a 3 0 800] ------- [1:0 3:0 29 3] [39] 2 0
s 0.500000000 _3_ AGT  --- 41 cbr 1000 [0 0 0 0] ------- [3:1 4:1 32 0] [0] 0 0
r 0.500000000 _3_ RTR  --- 41 cbr 1000 [0 0 0 0] ------- [3:1 4:1 32 0] [0] 0 0
s 0.500000000 _3_ RTR  --- 0 AODV 48 [0 0 0 0] ------- [3:255 -1:255 30 0] [0x2 1 1 [4 0] [3 4]] (REQUEST)
s 0.500000000 _1_ AGT  --- 42 cbr 1000 [0 0 0 0] ------- [1:0 3:0 32 0] [40] 0 0
r 0.500000000 _1_ RTR  --- 42 cbr 1000 [0 0 0 0] ------- [1:0 3:0 32 0] [40] 0 0
s 0.500000000 _1_ RTR  --- 42 cbr 1020 [0 0 0 0] ------- [1:0 3:0 30 0] [40] 0 0
r 0.503887515 _0_ RTR  --- 42 cbr 1020 [13a 0 1 800] ------- [1:0 3:0 30 0] [40] 1 0
f 0.503887515 _0_ RTR  --- 42 cbr 1020 [13a 0 1 800] ------- [1:0 3:0 29 3] [40] 1 0
r 0.506023697 _3_ AGT  --- 42 cbr 1020 [13a 3 0 800] ------- [1:0 3:0 29 3] [40] 2 0
s 0.510000000 _3_ AGT  --- 43 cbr 1000 [0 0 0 0] ------- [3:1 4:1 32 0] [1] 0 0
r 0.510000000 _3_ RTR  --- 43 cbr 1000 [0 0 0 0] ------- [3:1 4:1 32 0] [1] 0 0
s 0.510000000 _1_ AGT  --- 44 cbr 1000 [0 0 0 0] ------- [1:0 3:0 32 0] [41] 0 0
r 0.510000000 _1_ RTR  --- 44 cbr 1000 [0 0 0 0] ------- [1:0 3:0 32 0] [41] 0 0
s 0.510000000 _1_ RTR  --- 44 cbr 1020 [0 0 0 0] ------- [1:0 3:0 30 0] [41] 0 0
r 0.511732182 _0_ RTR  --- 44 cbr 1020 [13a 0 1 800] ------- [1:0 3:0 30 0] [41] 1 0
f 0.511732182 _0_ RTR  --- 44 cbr 1020 [13a 0 1 800] ------- [1:0 3:0 29 3] [41] 1 0
r 0.513828364 _3_ AGT  --- 44 cbr 1020 [13a 3 0 800] ------- [1:0 3:0 29 3] [41] 2 0
s 0.520000000 _3_ AGT  --- 45 cbr 1000 [0 0 0 0] ------- [3:1 4:1 32 0] [2] 0 0
r 0.520000000 _3_ RTR  --- 45 cbr 1000 [0 0 0 0] ------- [3:1 4:1 32 0] [2] 0 0
s 0.520000000 _1_ AGT  --- 46 cbr 1000 [0 0 0 0] ------- [1:0 3:0 32 0] [42] 0 0
r 0.520000000 _1_ RTR  --- 46 cbr 1000 [0 0 0 0] ------- [1:0 3:0 32 0] [42] 0 0
s 0.520000000 _1_ RTR  --- 46 cbr 1020 [0 0 0 0] ------- [1:0 3:0 30 0] [42] 0 0
r 0.521732182 _0_ RTR  --- 46 cbr 1020 [13a 0 1 800] ------- [1:0 3:0 30 0] [42] 1 0
f 0.521732182 _0_ RTR  --- 46 cbr 1020 [13a 0 1 800] ------- [1:0 3:0 29 3] [42] 1 0
r 0.524108364 _3_ AGT  --- 46 cbr 1020 [13a 3 0 800] ------- [1:0 3:0 29 3] [42] 2 0
s 0.530000000 _3_ AGT  --- 47 cbr 1000 [0 0 0 0] ------- [3:1 4:1 32 0] [3] 0 0
r 0.530000000 _3_ RTR  --- 47 cbr 1000 [0 0 0 0] ------- [3:1 4:1 32 0] [3] 0 0
s 0.530000000 _1_ AGT  --- 48 cbr 1000 [0 0 0 0] ------- [1:0 3:0 32 0] [43] 0 0
r 0.530000000 _1_ RTR  --- 48 cbr 1000 [0 0 0 0] ------- [1:0 3:0 32 0] [43] 0 0
s 0.530000000 _1_ RTR  --- 48 cbr 1020 [0 0 0 0] ------- [1:0 3:0 30 0] [43] 0 0
r 0.531732182 _0_ RTR  --- 48 cbr 1020 [13a 0 1 800] ------- [1:0 3:0 30 0] [43] 1 0
f 0.531732182 _0_ RTR  --- 48 cbr 1020 [13a 0 1 800] ------- [1:0 3:0 29 3] [43] 1 0
r 0.533728364 _3_ AGT  --- 48 cbr 1020 [13a 3 0 800] ------- [1:0 3:0 29 3] [43] 2 0
s 0.540000000 _3_ AGT  --- 49 cbr 1000 [0 0 0 0] ------- [3:1 4:1 32 0] [4] 0 0
r 0.540000000 _3_ RTR  --- 49 cbr 1000 [0 0 0 0] ------- [3:1 4:1 32 0] [4] 0 0
s 0.540000000 _1_ AGT  --- 50 cbr 1000 [0 0 0 0] ------- [1:0 3:0 32 0] [44] 0 0
r 0.540000000 _1_ RTR  --- 50 cbr 1000 [0 0 0 0] ------- [1:0 3:0 32 0] [44] 0 0
s 0.540000000 _1_ RTR  --- 50 cbr 1020 [0 0 0 0] ------- [1:0 3:0 30 0] [44] 0 0
r 0.541732182 _0_ RTR  --- 50 cbr 1020 [13a 0 1 800] ------- [1:0 3:0 30 0] [44] 1 0
f 0.541732182 _0_ RTR  --- 50 cbr 1020 [13a 0 1 800] ------- [1:0 3:0 29 3] [44] 1 0
r 0.543888364 _3_ AGT  --- 50 cbr 1020 [13a 3 0 800] ------- [1:0 3:0 29 3] [44] 2 0
s 0.550000000 _3_ AGT  --- 51 cbr 1000 [0 0 0 0] ------- [3:1 4:1 32 0] [5] 0 0
r 0.550000000 _3_ RTR  --- 51 cbr 1000 [0 0 0 0] ------- [3:1 4:1 32 0] [5] 0 0
s 0.550000000 _1_ AGT  --- 52 cbr 1000 [0 0 0 0] ------- [1:0 3:0 32 0] [45] 0 0
r 0.550000000 _1_ RTR  --- 52 cbr 1000 [0 0 0 0] ------- [1:0 3:0 32 0] [45] 0 0
s 0.550000000 _1_ RTR  --- 52 cbr 1020 [0 0 0 0] ------- [1:0 3:0 30 0] [45] 0 0
r 0.551732182 _0_ RTR  --- 52 cbr 1020 [13a 0 1 800] ------- [1:0 3:0 30 0] [45] 1 0
f 0.551732182 _0_ RTR  --- 52 cbr 1020 [13a 0 1 800] ------- [1:0 3:0 29 3] [45] 1 0
r 0.553868364 _3_ AGT  --- 52 cbr 1020 [13a 3 0 800] ------- [1:0 3:0 29 3] [45] 2 0
s 0.560000000 _3_ AGT  --- 53 cbr 1000 [0 0 0 0] ------- [3:1 4:1 32 0] [6] 0 0
r 0.560000000 _3_ RTR  --- 53 cbr 1000 [0 0 0 0] ------- [3:1 4:1 32 0] [6] 0 0
s 0.560000000 _1_ AGT  --- 54 cbr 1000 [0 0 0 0] ------- [1:0 3:0 32 0] [46] 0 0
r 0.560000000 _1_ RTR  --- 54 cbr 1000 [0 0 0 0] ------- [1:0 3:0 32 0] [46] 0 0
s 0.560000000 _1_ RTR  --- 54 cbr 1020 [0 0 0 0] ------- [1:0 3:0 30 0] [46] 0 0
r 0.561732182 _0_ RTR  --- 54 cbr 1020 [13a 0 1 800] ------- [1:0 3:0 30 0] [46] 1 0
f 0.561732182 _0_ RTR  --- 54 cbr 1020 [13a 0 1 800] ------- [1:0 3:0 29 3] [46] 1 0
r 0.563768364 _3_ AGT  --- 54 cbr 1020 [13a 3 0 800] ------- [1:0 3:0 29 3] [46] 2 0
s 0.570000000 _3_ AGT  --- 55 cbr 1000 [0 0 0 0] ------- [3:1 4:1 32 0] [7] 0 0
r 0.570000000 _3_ RTR  --- 55 cbr 1000 [0 0 0 0] ------- [3:1 4:1 32 0] [7] 0 0
s 0.570000000 _1_ AGT  --- 56 cbr 1000 [0 0 0 0] ------- [1:0 3:0 32 0] [47] 0 0
r 0.570000000 _1_ RTR  --- 56 cbr 1000 [0 0 0 0] ------- [1:0 3:0 32 0] [47] 0 0
s 0.570000000 _1_ RTR  --- 56 cbr 1020 [0 0 0 0] ------- [1:0 3:0 30 0] [47] 0 0
r 0.571732182 _0_ RTR  --- 56 cbr 1020 [13a 0 1 800] ------- [1:0 3:0 30 0] [47] 1 0
f 0.571732182 _0_ RTR  --- 56 cbr 1020 [13a 0 1 800] ------- [1:0 3:0 29 3] [47] 1 0
r 0.573728364 _3_ AGT  --- 56 cbr 1020 [13a 3 0 800] ------- [1:0 3:0 29 3] [47] 2 0
s 0.580000000 _3_ AGT  --- 57 cbr 1000 [0 0 0 0] ------- [3:1 4:1 32 0] [8] 0 0
r 0.580000000 _3_ RTR  --- 57 cbr 1000 [0 0 0 0] ------- [3:1 4:1 32 0] [8] 0 0
s 0.580000000 _1_ AGT  --- 58 cbr 1000 [0 0 0 0] ------- [1:0 3:0 32 0] [48] 0 0
r 0.580000000 _1_ RTR  --- 58 cbr 1000 [0 0 0 0] ------- [1:0 3:0 32 0] [48] 0 0
s 0.580000000 _1_ RTR  --- 58 cbr 1020 [0 0 0 0] ------- [1:0 3:0 30 0] [48] 0 0
r 0.581732182 _0_ RTR  --- 58 cbr 1020 [13a 0 1 800] ------- [1:0 3:0 30 0] [48] 1 0
f 0.581732182 _0_ RTR  --- 58 cbr 1020 [13a 0 1 800] ------- [1:0 3:0 29 3] [48] 1 0
r 0.584028364 _3_ AGT  --- 58 cbr 1020 [13a 3 0 800] ------- [1:0 3:0 29 3] [48] 2 0
s 0.590000000 _3_ AGT  --- 59 cbr 1000 [0 0 0 0] ------- [3:1 4:1 32 0] [9] 0 0
r 0.590000000 _3_ RTR  --- 59 cbr 1000 [0 0 0 0] ------- [3:1 4:1 32 0] [9] 0 0
s 0.590000000 _1_ AGT  --- 60 cbr 1000 [0 0 0 0] ------- [1:0 3:0 32 0] [49] 0 0
r 0.590000000 _1_ RTR  --- 60 cbr 1000 [0 0 0 0] ------- [1:0 3:0 32 0] [49] 0 0
s 0.590000000 _1_ RTR  --- 60 cbr 1020 [0 0 0 0] ------- [1:0 3:0 30 0] [49] 0 0
r 0.591732182 _0_ RTR  --- 60 cbr 1020 [13a 0 1 800] ------- [1:0 3:0 30 0] [49] 1 0
f 0.591732182 _0_ RTR  --- 60 cbr 1020 [13a 0 1 800] ------- [1:0 3:0 29 3] [49] 1 0
r 0.594208364 _3_ AGT  --- 60 cbr 1020 [13a 3 0 800] ------- [1:0 3:0 29 3] [49] 2 0
s 0.600000000 _3_ AGT  --- 61 cbr 1000 [0 0 0 0] ------- [3:1 4:1 32 0] [10] 0 0
r 0.600000000 _3_ RTR  --- 61 cbr 1000 [0 0 0 0] ------- [3:1 4:1 32 0] [10] 0 0
s 0.600000000 _1_ AGT  --- 62 cbr 1000 [0 0 0 0] ------- [1:0 3:0 32 0] [50] 0 0
r 0.600000000 _1_ RTR  --- 62 cbr 1000 [0 0 0 0] ------- [1:0 3:0 32 0] [50] 0 0
s 0.600000000 _1_ RTR  --- 62 cbr 1020 [0 0 0 0] ------- [1:0 3:0 30 0] [50] 0 0
r 0.601732182 _0_ RTR  --- 62 cbr 1020 [13a 0 1 800] ------- [1:0 3:0 30 0] [50] 1 0
f 0.601732182 _0_ RTR  --- 62 cbr 1020 [13a 0 1 800] ------- [1:0 3:0 29 3] [50] 1 0
r 0.604228364 _3_ AGT  --- 62 cbr 1020 [13a 3 0 800] ------- [1:0 3:0 29 3] [50] 2 0
s 0.610000000 _3_ AGT  --- 63 cbr 1000 [0 0 0 0] ------- [3:1 4:1 32 0] [11] 0 0
r 0.610000000 _3_ RTR  --- 63 cbr 1000 [0 0 0 0] ------- [3:1 4:1 32 0] [11] 0 0
s 0.610000000 _1_ AGT  --- 64 cbr 1000 [0 0 0 0] ------- [1:0 3:0 32 0] [51] 0 0
r 0.610000000 _1_ RTR  --- 64 cbr 1000 [0 0 0 0] ------- [1:0 3:0 32 0] [51] 0 0
s 0.610000000 _1_ RTR  --- 64 cbr 1020 [0 0 0 0] ------- [1:0 3:0 30 0] [51] 0 0
r 0.611732182 _0_ RTR  --- 64 cbr 1020 [13a 0 1 800] ------- [1:0 3:0 30 0] [51] 1 0