W -t * -x 600 -y 400
n -t * -s 0  -x 300 -y 200 -Z 0 -z 5  -v circle -c black
n -t * -s 1  -x 271.7157287525381 -y 228.2842712474619 -Z 0 -z 5  -v circle -c black
n -t * -s 2  -x 271.7157287525381 -y 171.7157287525381 -Z 0 -z 5  -v circle -c black
n -t * -s 3  -x 328.2842712474619 -y 171.7157287525381 -Z 0 -z 5  -v circle -c black
n -t * -s 4  -x 328.2842712474619 -y 228.2842712474619 -Z 0 -z 5  -v circle -c black
V -t * -v 1.0a5 -a 0
A -t * -n 1 -p 0 -o 0xffffffff -c 31 -a 1
A -t * -h 1 -m 2147483647 -s 0
c -t * -i 4 -n yellow
c -t * -i 1 -n blue
c -t * -i 2 -n red
c -t * -i 3 -n green
n -t 0 -s 0 -S DLABEL -l "n_0" -L ""
n -t 0 -s 1 -S DLABEL -l "n_1" -L ""
n -t 0 -s 2 -S DLABEL -l "n_2" -L ""
n -t 0 -s 3 -S DLABEL -l "n_3" -L ""
n -t 0 -s 4 -S DLABEL -l "n_4" -L ""
+ -t 0.100000000 -s 1 -d -1 -p cbr -e 1000 -c 2 -a 0 -i 0 -k AGT 
- -t 0.100000000 -s 1 -d -1 -p cbr -e 1000 -c 2 -a 0 -i 0 -k AGT
h -t 0.100000000 -s 1 -d -1 -p cbr -e 1000 -c 2 -a 0 -i 0 -k AGT
+ -t 0.100000000 -s 1 -d -1 -p AODV -e 48 -c 2 -a 0 -i 0 -k RTR 
- -t 0.100000000 -s 1 -d -1 -p AODV -e 48 -c 2 -a 0 -i 0 -k RTR
h -t 0.100000000 -s 1 -d -1 -p AODV -e 48 -c 2 -a 0 -i 0 -k RTR
r -t 0.100900133 -s 0 -d -1 -p AODV -e 48 -c 2 -a 0 -i 0 -k RTR
r -t 0.100900189 -s 4 -d -1 -p AODV -e 48 -c 2 -a 0 -i 0 -k RTR
r -t 0.100900189 -s 2 -d -1 -p AODV -e 48 -c 2 -a 0 -i 0 -k RTR
r -t 0.100900267 -s 3 -d -1 -p AODV -e 48 -c 2 -a 0 -i 0 -k RTR
+ -t 0.100900267 -s 3 -d 1 -p AODV -e 44 -c 2 -a 0 -i 0 -k RTR 
- -t 0.100900267 -s 3 -d 1 -p AODV -e 44 -c 2 -a 0 -i 0 -k RTR
h -t 0.100900267 -s 3 -d 1 -p AODV -e 44 -c 2 -a 0 -i 0 -k RTR
+ -t 0.101781360 -s 0 -d -1 -p AODV -e 48 -c 2 -a 0 -i 0 -k RTR 
- -t 0.101781360 -s 0 -d -1 -p AODV -e 48 -c 2 -a 0 -i 0 -k RTR
h -t 0.101781360 -s 0 -d -1 -p AODV -e 48 -c 2 -a 0 -i 0 -k RTR
r -t 0.102681493 -s 4 -d -1 -p AODV -e 48 -c 2 -a 0 -i 0 -k RTR
r -t 0.102681493 -s 3 -d -1 -p AODV -e 48 -c 2 -a 0 -i 0 -k RTR
r -t 0.102681493 -s 2 -d -1 -p AODV -e 48 -c 2 -a 0 -i 0 -k RTR
r -t 0.102681493 -s 1 -d -1 -p AODV -e 48 -c 2 -a 0 -i 0 -k RTR
+ -t 0.105266184 -s 1 -d 3 -p cbr -e 1020 -c 2 -a 0 -i 0 -k RTR 
- -t 0.105266184 -s 1 -d 3 -p cbr -e 1020 -c 2 -a 0 -i 0 -k RTR
h -t 0.105266184 -s 1 -d 3 -p cbr -e 1020 -c 2 -a 0 -i 0 -k RTR
+ -t 0.105311922 -s 4 -d -1 -p AODV -e 48 -c 2 -a 0 -i 0 -k RTR 
- -t 0.105311922 -s 4 -d -1 -p AODV -e 48 -c 2 -a 0 -i 0 -k RTR
h -t 0.105311922 -s 4 -d -1 -p AODV -e 48 -c 2 -a 0 -i 0 -k RTR
r -t 0.107501166 -s 3 -d 3 -p cbr -e 1020 -c 2 -a 0 -i 0 -k AGT
r -t 0.108785488 -s 0 -d -1 -p AODV -e 48 -c 2 -a 0 -i 0 -k RTR
r -t 0.108785543 -s 3 -d -1 -p AODV -e 48 -c 2 -a 0 -i 0 -k RTR
r -t 0.108785543 -s 1 -d -1 -p AODV -e 48 -c 2 -a 0 -i 0 -k RTR
r -t 0.108785621 -s 2 -d -1 -p AODV -e 48 -c 2 -a 0 -i 0 -k RTR
+ -t 0.108891743 -s 2 -d -1 -p AODV -e 48 -c 2 -a 0 -i 0 -k RTR 
- -t 0.108891743 -s 2 -d -1 -p AODV -e 48 -c 2 -a 0 -i 0 -k RTR
h -t 0.108891743 -s 2 -d -1 -p AODV -e 48 -c 2 -a 0 -i 0 -k RTR
r -t 0.109791876 -s 0 -d -1 -p AODV -e 48 -c 2 -a 0 -i 0 -k RTR
r -t 0.109791932 -s 3 -d -1 -p AODV -e 48 -c 2 -a 0 -i 0 -k RTR
r -t 0.109791932 -s 1 -d -1 -p AODV -e 48 -c 2 -a 0 -i 0 -k RTR
r -t 0.109792010 -s 4 -d -1 -p AODV -e 48 -c 2 -a 0 -i 0 -k RTR
+ -t 0.110000000 -s 1 -d -1 -p cbr -e 1000 -c 2 -a 0 -i 1 -k AGT 
- -t 0.110000000 -s 1 -d -1 -p cbr -e 1000 -c 2 -a 0 -i 1 -k AGT
h -t 0.110000000 -s 1 -d -1 -p cbr -e 1000 -c 2 -a 0 -i 1 -k AGT
+ -t 0.110000000 -s 1 -d 3 -p cbr -e 1020 -c 2 -a 0 -i 1 -k RTR 
- -t 0.110000000 -s 1 -d 3 -p cbr -e 1020 -c 2 -a 0 -i 1 -k RTR
h -t 0.110000000 -s 1 -d 3 -p cbr -e 1020 -c 2 -a 0 -i 1 -k RTR
r -t 0.111730982 -s 3 -d 3 -p cbr -e 1020 -c 2 -a 0 -i 1 -k AGT
+ -t 0.120000000 -s 1 -d -1 -p cbr -e 1000 -c 2 -a 0 -i 2 -k AGT 
- -t 0.120000000 -s 1 -d -1 -p cbr -e 1000 -c 2 -a 0 -i 2 -k AGT
h -t 0.120000000 -s 1 -d -1 -p cbr -e 1000 -c 2 -a 0 -i 2 -k AGT
+ -t 0.120000000 -s 1 -d 3 -p cbr -e 1020 -c 2 -a 0 -i 2 -k RTR 
- -t 0.120000000 -s 1 -d 3 -p cbr -e 1020 -c 2 -a 0 -i 2 -k RTR
h -t 0.120000000 -s 1 -d 3 -p cbr -e 1020 -c 2 -a 0 -i 2 -k RTR
r -t 0.121730982 -s 3 -d 3 -p cbr -e 1020 -c 2 -a 0 -i 2 -k AGT
+ -t 0.130000000 -s 1 -d -1 -p cbr -e 1000 -c 2 -a 0 -i 3 -k AGT 
- -t 0.130000000 -s 1 -d -1 -p cbr -e 1000 -c 2 -a 0 -i 3 -k AGT
h -t 0.130000000 -s 1 -d -1 -p cbr -e 1000 -c 2 -a 0 -i 3 -k AGT
+ -t 0.130000000 -s 1 -d 3 -p cbr -e 1020 -c 2 -a 0 -i 3 -k RTR 
- -t 0.130000000 -s 1 -d 3 -p cbr -e 1020 -c 2 -a 0 -i 3 -k RTR
h -t 0.130000000 -s 1 -d 3 -p cbr -e 1020 -c 2 -a 0 -i 3 -k RTR
r -t 0.131730982 -s 3 -d 3 -p cbr -e 1020 -c 2 -a 0 -i 3 -k AGT
+ -t 0.140000000 -s 1 -d -1 -p cbr -e 1000 -c 2 -a 0 -i 4 -k AGT 
- -t 0.140000000 -s 1 -d -1 -p cbr -e 1000 -c 2 -a 0 -i 4 -k AGT
h -t 0.140000000 -s 1 -d -1 -p cbr -e 1000 -c 2 -a 0 -i 4 -k AGT
+ -t 0.140000000 -s 1 -d 3 -p cbr -e 1020 -c 2 -a 0 -i 4 -k RTR 
- -t 0.140000000 -s 1 -d 3 -p cbr -e 1020 -c 2 -a 0 -i 4 -k RTR
h -t 0.140000000 -s 1 -d 3 -p cbr -e 1020 -c 2 -a 0 -i 4 -k RTR
r -t 0.141730982 -s 3 -d 3 -p cbr -e 1020 -c 2 -a 0 -i 4 -k AGT
+ -t 0.150000000 -s 1 -d -1 -p cbr -e 1000 -c 2 -a 0 -i 5 -k AGT 
- -t 0.150000000 -s 1 -d -1 -p cbr -e 1000 -c 2 -a 0 -i 5 -k AGT
h -t 0.150000000 -s 1 -d -1 -p cbr -e 1000 -c 2 -a 0 -i 5 -k AGT
+ -t 0.150000000 -s 1 -d 3 -p cbr -e 1020 -c 2 -a 0 -i 5 -k RTR 
- -t 0.150000000 -s 1 -d 3 -p cbr -e 1020 -c 2 -a 0 -i 5 -k RTR
h -t 0.150000000 -s 1 -d 3 -p cbr -e 1020 -c 2 -a 0 -i 5 -k RTR
r -t 0.151730982 -s 3 -d 3 -p cbr -e 1020 -c 2 -a 0 -i 5 -k AGT
+ -t 0.160000000 -s 1 -d -1 -p cbr -e 1000 -c 2 -a 0 -i 6 -k AGT 
- -t 0.160000000 -s 1 -d -1 -p cbr -e 1000 -c 2 -a 0 -i 6 -k AGT
h -t 0.160000000 -s 1 -d -1 -p cbr -e 1000 -c 2 -a 0 -i 6 -k AGT
+ -t 0.160000000 -s 1 -d 3 -p cbr -e 1020 -c 2 -a 0 -i 6 -k RTR 
- -t 0.160000000 -s 1 -d 3 -p cbr -e 1020 -c 2 -a 0 -i 6 -k RTR
h -t 0.160000000 -s 1 -d 3 -p cbr -e 1020 -c 2 -a 0 -i 6 -k RTR
r -t 0.161730982 -s 3 -d 3 -p cbr -e 1020 -c 2 -a 0 -i 6 -k AGT
+ -t 0.170000000 -s 1 -d -1 -p cbr -e 1000 -c 2 -a 0 -i 7 -k AGT 
- -t 0.170000000 -s 1 -d -1 -p cbr -e 1000 -c 2 -a 0 -i 7 -k AGT
h -t 0.170000000 -s 1 -d -1 -p cbr -e 1000 -c 2 -a 0 -i 7 -k AGT
+ -t 0.170000000 -s 1 -d 3 -p cbr -e 1020 -c 2 -a 0 -i 7 -k RTR 
- -t 0.170000000 -s 1 -d 3 -p cbr -e 1020 -c 2 -a 0 -i 7 -k RTR
h -t 0.170000000 -s 1 -d 3 -p cbr -e 1020 -c 2 -a 0 -i 7 -k RTR
r -t 0.171730982 -s 3 -d 3 -p cbr -e 1020 -c 2 -a 0 -i 7 -k AGT
+ -t 0.180000000 -s 1 -d -1 -p cbr -e 1000 -c 2 -a 0 -i 8 -k AGT 
- -t 0.180000000 -s 1 -d -1 -p cbr -e 1000 -c 2 -a 0 -i 8 -k AGT
h -t 0.180000000 -s 1 -d -1 -p cbr -e 1000 -c 2 -a 0 -i 8 -k AGT
+ -t 0.180000000 -s 1 -d 3 -p cbr -e 1020 -c 2 -a 0 -i 8 -k RTR 
- -t 0.180000000 -s 1 -d 3 -p cbr -e 1020 -c 2 -a 0 -i 8 -k RTR
h -t 0.180000000 -s 1 -d 3 -p cbr -e 1020 -c 2 -a 0 -i 8 -k RTR
r -t 0.181730982 -s 3 -d 3 -p cbr -e 1020 -c 2 -a 0 -i 8 -k AGT
+ -t 0.190000000 -s 1 -d -1 -p cbr -e 1000 -c 2 -a 0 -i 9 -k AGT 
- -t 0.190000000 -s 1 -d -1 -p cbr -e 1000 -c 2 -a 0 -i 9 -k AGT
h -t 0.190000000 -s 1 -d -1 -p cbr -e 1000 -c 2 -a 0 -i 9 -k AGT
+ -t 0.190000000 -s 1 -d 3 -p cbr -e 1020 -c 2 -a 0 -i 9 -k RTR 
- -t 0.190000000 -s 1 -d 3 -p cbr -e 1020 -c 2 -a 0 -i 9 -k RTR
h -t 0.190000000 -s 1 -d 3 -p cbr -e 1020 -c 2 -a 0 -i 9 -k RTR
r -t 0.191730982 -s 3 -d 3 -p cbr -e 1020 -c 2 -a 0 -i 9 -k AGT
+ -t 0.200000000 -s 1 -d -1 -p cbr -e 1000 -c 2 -a 0 -i 10 -k AGT 
- -t 0.200000000 -s 1 -d -1 -p cbr -e 1000 -c 2 -a 0 -i 10 -k AGT
h -t 0.200000000 -s 1 -d -1 -p cbr -e 1000 -c 2 -a 0 -i 10 -k AGT
+ -t 0.200000000 -s 1 -d 3 -p cbr -e 1020 -c 2 -a 0 -i 10 -k RTR 
- -t 0.200000000 -s 1 -d 3 -p cbr -e 1020 -c 2 -a 0 -i 10 -k RTR
h -t 0.200000000 -s 1 -d 3 -p cbr -e 1020 -c 2 -a 0 -i 10 -k RTR
r -t 0.201730982 -s 3 -d 3 -p cbr -e 1020 -c 2 -a 0 -i 10 -k AGT
+ -t 0.210000000 -s 1 -d -1 -p cbr -e 1000 -c 2 -a 0 -i 11 -k AGT 
- -t 0.210000000 -s 1 -d -1 -p cbr -e 1000 -c 2 -a 0 -i 11 -k AGT
h -t 0.210000000 -s 1 -d -1 -p cbr -e 1000 -c 2 -a 0 -i 11 -k AGT
+ -t 0.210000000 -s 1 -d 3 -p cbr -e 1020 -c 2 -a 0 -i 11 -k RTR 
- -t 0.210000000 -s 1 -d 3 -p cbr -e 1020 -c 2 -a 0 -i 11 -k RTR
h -t 0.210000000 -s 1 -d 3 -p cbr -e 1020 -c 2 -a 0 -i 11 -k RTR
r -t 0.211730982 -s 3 -d 3 -p cbr -e 1020 -c 2 -a 0 -i 11 -k AGT
+ -t 0.220000000 -s 1 -d -1 -p cbr -e 1000 -c 2 -a 0 -i 12 -k AGT 
- -t 0.220000000 -s 1 -d -1 -p cbr -e 1000 -c 2 -a 0 -i 12 -k AGT
h -t 0.220000000 -s 1 -d -1 -p cbr -e 1000 -c 2 -a 0 -i 12 -k AGT
+ -t 0.220000000 -s 1 -d 3 -p cbr -e 1020 -c 2 -a 0 -i 12 -k RTR 
- -t 0.220000000 -s 1 -d 3 -p cbr -e 1020 -c 2 -a 0 -i 12 -k RTR
h -t 0.220000000 -s 1 -d 3 -p cbr -e 1020 -c 2 -a 0 -i 12 -k RTR
r -t 0.221730982 -s 3 -d 3 -p cbr -e 1020 -c 2 -a 0 -i 12 -k AGT
+ -t 0.230000000 -s 1 -d -1 -p cbr -e 1000 -c 2 -a 0 -i 13 -k AGT 
- -t 0.230000000 -s 1 -d -1 -p cbr -e 1000 -c 2 -a 0 -i 13 -k AGT
h -t 0.230000000 -s 1 -d -1 -p cbr -e 1000 -c 2 -a 0 -i 13 -k AGT
+ -t 0.230000000 -s 1 -d 3 -p cbr -e 1020 -c 2 -a 0 -i 13 -k RTR 
- -t 0.230000000 -s 1 -d 3 -p cbr -e 1020 -c 2 -a 0 -i 13 -k RTR
h -t 0.230000000 -s 1 -d 3 -p cbr -e 1020 -c 2 -a 0 -i 13 -k RTR
r -t 0.231730982 -s 3 -d 3 -p cbr -e 1020 -c 2 -a 0 -i 13 -k AGT
+ -t 0.240000000 -s 1 -d -1 -p cbr -e 1000 -c 2 -a 0 -i 14 -k AGT 
- -t 0.240000000 -s 1 -d -1 -p cbr -e 1000 -c 2 -a 0 -i 14 -k AGT
h -t 0.240000000 -s 1 -d -1 -p cbr -e 1000 -c 2 -a 0 -i 14 -k AGT
+ -t 0.240000000 -s 1 -d 3 -p cbr -e 1020 -c 2 -a 0 -i 14 -k RTR 
- -t 0.240000000 -s 1 -d 3 -p cbr -e 1020 -c 2 -a 0 -i 14 -k RTR
h -t 0.240000000 -s 1 -d 3 -p cbr -e 1020 -c 2 -a 0 -i 14 -k RTR
r -t 0.241730982 -s 3 -d 3 -p cbr -e 1020 -c 2 -a 0 -i 14 -k AGT
+ -t 0.250000000 -s 1 -d -1 -p cbr -e 1000 -c 2 -a 0 -i 15 -k AGT 
- -t 0.250000000 -s 1 -d -1 -p cbr -e 1000 -c 2 -a 0 -i 15 -k AGT
h -t 0.250000000 -s 1 -d -1 -p cbr -e 1000 -c 2 -a 0 -i 15 -k AGT
+ -t 0.250000000 -s 1 -d 3 -p cbr -e 1020 -c 2 -a 0 -i 15 -k RTR 
- -t 0.250000000 -s 1 -d 3 -p cbr -e 1020 -c 2 -a 0 -i 15 -k RTR
h -t 0.250000000 -s 1 -d 3 -p cbr -e 1020 -c 2 -a 0 -i 15 -k RTR
r -t 0.251730982 -s 3 -d 3 -p cbr -e 1020 -c 2 -a 0 -i 15 -k AGT
+ -t 0.260000000 -s 1 -d -1 -p cbr -e 1000 -c 2 -a 0 -i 16 -k AGT 
- -t 0.260000000 -s 1 -d -1 -p cbr -e 1000 -c 2 -a 0 -i 16 -k AGT
h -t 0.260000000 -s 1 -d -1 -p cbr -e 1000 -c 2 -a 0 -i 16 -k AGT
+ -t 0.260000000 -s 1 -d 3 -p cbr -e 1020 -c 2 -a 0 -i 16 -k RTR 
- -t 0.260000000 -s 1 -d 3 -p cbr -e 1020 -c 2 -a 0 -i 16 -k RTR
h -t 0.260000000 -s 1 -d 3 -p cbr -e 1020 -c 2 -a 0 -i 16 -k RTR
r -t 0.261730982 -s 3 -d 3 -p cbr -e 1020 -c 2 -a 0 -i 16 -k AGT
+ -t 0.270000000 -s 1 -d -1 -p cbr -e 1000 -c 2 -a 0 -i 17 -k AGT 
- -t 0.270000000 -s 1 -d -1 -p cbr -e 1000 -c 2 -a 0 -i 17 -k AGT
h -t 0.270000000 -s 1 -d -1 -p cbr -e 1000 -c 2 -a 0 -i 17 -k AGT
+ -t 0.270000000 -s 1 -d 3 -p cbr -e 1020 -c 2 -a 0 -i 17 -k RTR 
- -t 0.270000000 -s 1 -d 3 -p cbr -e 1020 -c 2 -a 0 -i 17 -k RTR
h -t 0.270000000 -s 1 -d 3 -p cbr -e 1020 -c 2 -a 0 -i 17 -k RTR
r -t 0.271730982 -s 3 -d 3 -p cbr -e 1020 -c 2 -a 0 -i 17 -k AGT
+ -t 0.280000000 -s 1 -d -1 -p cbr -e 1000 -c 2 -a 0 -i 18 -k AGT 
- -t 0.280000000 -s 1 -d -1 -p cbr -e 1000 -c 2 -a 0 -i 18 -k AGT
h -t 0.280000000 -s 1 -d -1 -p cbr -e 1000 -c 2 -a 0 -i 18 -k AGT
+ -t 0.280000000 -s 1 -d 3 -p cbr -e 1020 -c 2 -a 0 -i 18 -k RTR 
- -t 0.280000000 -s 1 -d 3 -p cbr -e 1020 -c 2 -a 0 -i 18 -k RTR
h -t 0.280000000 -s 1 -d 3 -p cbr -e 1020 -c 2 -a 0 -i 18 -k RTR
r -t 0.281730982 -s 3 -d 3 -p cbr -e 1020 -c 2 -a 0 -i 18 -k AGT
+ -t 0.290000000 -s 1 -d -1 -p cbr -e 1000 -c 2 -a 0 -i 19 -k AGT 
- -t 0.290000000 -s 1 -d -1 -p cbr -e 1000 -c 2 -a 0 -i 19 -k AGT
h -t 0.290000000 -s 1 -d -1 -p cbr -e 1000 -c 2 -a 0 -i 19 -k AGT
+ -t 0.290000000 -s 1 -d 3 -p cbr -e 1020 -c 2 -a 0 -i 19 -k RTR 
- -t 0.290000000 -s 1 -d 3 -p cbr -e 1020 -c 2 -a 0 -i 19 -k RTR
h -t 0.290000000 -s 1 -d 3 -p cbr -e 1020 -c 2 -a 0 -i 19 -k RTR
r -t 0.291730982 -s 3 -d 3 -p cbr -e 1020 -c 2 -a 0 -i 19 -k AGT
+ -t 0.300000000 -s 2 -d -1 -p tcp -e 40 -c 2 -a 0 -i 20 -k AGT 
- -t 0.300000000 -s 2 -d -1 -p tcp -e 40 -c 2 -a 0 -i 20 -k AGT
h -t 0.300000000 -s 2 -d -1 -p tcp -e 40 -c 2 -a 0 -i 20 -k AGT
+ -t 0.300000000 -s 2 -d -1 -p AODV -e 48 -c 2 -a 0 -i 0 -k RTR 
- -t 0.300000000 -s 2 -d -1 -p AODV -e 48 -c 2 -a 0 -i 0 -k RTR
h -t 0.300000000 -s 2 -d -1 -p AODV -e 48 -c 2 -a 0 -i 0 -k RTR
+ -t 0.300000000 -s 1 -d -1 -p cbr -e 1000 -c 2 -a 0 -i 21 -k AGT 
- -t 0.300000000 -s 1 -d -1 -p cbr -e 1000 -c 2 -a 0 -i 21 -k AGT
h -t 0.300000000 -s 1 -d -1 -p cbr -e 1000 -c 2 -a 0 -i 21 -k AGT
+ -t 0.300000000 -s 1 -d 3 -p cbr -e 1020 -c 2 -a 0 -i 21 -k RTR 
- -t 0.300000000 -s 1 -d 3 -p cbr -e 1020 -c 2 -a 0 -i 21 -k RTR
h -t 0.300000000 -s 1 -d 3 -p cbr -e 1020 -c 2 -a 0 -i 21 -k RTR
r -t 0.303645170 -s 3 -d 3 -p cbr -e 1020 -c 2 -a 0 -i 21 -k AGT
+ -t 0.310000000 -s 1 -d -1 -p cbr -e 1000 -c 2 -a 0 -i 22 -k AGT 
- -t 0.310000000 -s 1 -d -1 -p cbr -e 1000 -c 2 -a 0 -i 22 -k AGT
h -t 0.310000000 -s 1 -d -1 -p cbr -e 1000 -c 2 -a 0 -i 22 -k AGT
+ -t 0.310000000 -s 1 -d 3 -p cbr -e 1020 -c 2 -a 0 -i 22 -k RTR 
- -t 0.310000000 -s 1 -d 3 -p cbr -e 1020 -c 2 -a 0 -i 22 -k RTR
h -t 0.310000000 -s 1 -d 3 -p cbr -e 1020 -c 2 -a 0 -i 22 -k RTR
r -t 0.311730982 -s 3 -d 3 -p cbr -e 1020 -c 2 -a 0 -i 22 -k AGT
+ -t 0.320000000 -s 1 -d -1 -p cbr -e 1000 -c 2 -a 0 -i 23 -k AGT 
- -t 0.320000000 -s 1 -d -1 -p cbr -e 1000 -c 2 -a 0 -i 23 -k AGT
h -t 0.320000000 -s 1 -d -1 -p cbr -e 1000 -c 2 -a 0 -i 23 -k AGT
+ -t 0.320000000 -s 1 -d 3 -p cbr -e 1020 -c 2 -a 0 -i 23 -k RTR 
- -t 0.320000000 -s 1 -d 3 -p cbr -e 1020 -c 2 -a 0 -i 23 -k RTR
h -t 0.320000000 -s 1 -d 3 -p cbr -e 1020 -c 2 -a 0 -i 23 -k RTR
r -t 0.321730982 -s 3 -d 3 -p cbr -e 1020 -c 2 -a 0 -i 23 -k AGT
+ -t 0.330000000 -s 1 -d -1 -p cbr -e 1000 -c 2 -a 0 -i 24 -k AGT 
- -t 0.330000000 -s 1 -d -1 -p cbr -e 1000 -c 2 -a 0 -i 24 -k AGT
h -t 0.330000000 -s 1 -d -1 -p cbr -e 1000 -c 2 -a 0 -i 24 -k AGT
+ -t 0.330000000 -s 1 -d 3 -p cbr -e 1020 -c 2 -a 0 -i 24 -k RTR 
- -t 0.330000000 -s 1 -d 3 -p cbr -e 1020 -c 2 -a 0 -i 24 -k RTR
h -t 0.330000000 -s 1 -d 3 -p cbr -e 1020 -c 2 -a 0 -i 24 -k RTR
r -t 0.331730982 -s 3 -d 3 -p cbr -e 1020 -c 2 -a 0 -i 24 -k AGT
+ -t 0.340000000 -s 1 -d -1 -p cbr -e 1000 -c 2 -a 0 -i 25 -k AGT 
- -t 0.340000000 -s 1 -d -1 -p cbr -e 1000 -c 2 -a 0 -i 25 -k AGT
h -t 0.340000000 -s 1 -d -1 -p cbr -e 1000 -c 2 -a 0 -i 25 -k AGT
+ -t 0.340000000 -s 1 -d 3 -p cbr -e 1020 -c 2 -a 0 -i 25 -k RTR 
- -t 0.340000000 -s 1 -d 3 -p cbr -e 1020 -c 2 -a 0 -i 25 -k RTR
h -t 0.340000000 -s 1 -d 3 -p cbr -e 1020 -c 2 -a 0 -i 25 -k RTR
r -t 0.341730982 -s 3 -d 3 -p cbr -e 1020 -c 2 -a 0 -i 25 -k AGT
+ -t 0.350000000 -s 1 -d -1 -p cbr -e 1000 -c 2 -a 0 -i 26 -k AGT 
- -t 0.350000000 -s 1 -d -1 -p cbr -e 1000 -c 2 -a 0 -i 26 -k AGT
h -t 0.350000000 -s 1 -d -1 -p cbr -e 1000 -c 2 -a 0 -i 26 -k AGT
+ -t 0.350000000 -s 1 -d 3 -p cbr -e 1020 -c 2 -a 0 -i 26 -k RTR 
- -t 0.350000000 -s 1 -d 3 -p cbr -e 1020 -c 2 -a 0 -i 26 -k RTR
h -t 0.350000000 -s 1 -d 3 -p cbr -e 1020 -c 2 -a 0 -i 26 -k RTR
r -t 0.351730982 -s 3 -d 3 -p cbr -e 1020 -c 2 -a 0 -i 26 -k AGT
+ -t 0.360000000 -s 1 -d -1 -p cbr -e 1000 -c 2 -a 0 -i 27 -k AGT 
- -t 0.360000000 -s 1 -d -1 -p cbr -e 1000 -c 2 -a 0 -i 27 -k AGT
h -t 0.360000000 -s 1 -d -1 -p cbr -e 1000 -c 2 -a 0 -i 27 -k AGT
+ -t 0.360000000 -s 1 -d 3 -p cbr -e 1020 -c 2 -a 0 -i 27 -k RTR 
- -t 0.360000000 -s 1 -d 3 -p cbr -e 1020 -c 2 -a 0 -i 27 -k RTR
h -t 0.360000000 -s 1 -d 3 -p cbr -e 1020 -c 2 -a 0 -i 27 -k RTR
r -t 0.361730982 -s 3 -d 3 -p cbr -e 1020 -c 2 -a 0 -i 27 -k AGT
+ -t 0.370000000 -s 1 -d -1 -p cbr -e 1000 -c 2 -a 0 -i 28 -k AGT 
- -t 0.370000000 -s 1 -d -1 -p cbr -e 1000 -c 2 -a 0 -i 28 -k AGT
h -t 0.370000000 -s 1 -d -1 -p cbr -e 1000 -c 2 -a 0 -i 28 -k AGT
+ -t 0.370000000 -s 1 -d 3 -p cbr -e 1020 -c 2 -a 0 -i 28 -k RTR 
- -t 0.370000000 -s 1 -d 3 -p cbr -e 1020 -c 2 -a 0 -i 28 -k RTR
h -t 0.370000000 -s 1 -d 3 -p cbr -e 1020 -c 2 -a 0 -i 28 -k RTR
r -t 0.371730982 -s 3 -d 3 -p cbr -e 1020 -c 2 -a 0 -i 28 -k AGT
+ -t 0.380000000 -s 1 -d -1 -p cbr -e 1000 -c 2 -a 0 -i 29 -k AGT 
- -t 0.380000000 -s 1 -d -1 -p cbr -e 1000 -c 2 -a 0 -i 29 -k AGT
h -t 0.380000000 -s 1 -d -1 -p cbr -e 1000 -c 2 -a 0 -i 29 -k AGT
+ -t 0.380000000 -s 1 -d 3 -p cbr -e 1020 -c 2 -a 0 -i 29 -k RTR 
- -t 0.380000000 -s 1 -d 3 -p cbr -e 1020 -c 2 -a 0 -i 29 -k RTR
h -t 0.380000000 -s 1 -d 3 -p cbr -e 1020 -c 2 -a 0 -i 29 -k RTR
r -t 0.381730982 -s 3 -d 3 -p cbr -e 1020 -c 2 -a 0 -i 29 -k AGT
+ -t 0.390000000 -s 1 -d -1 -p cbr -e 1000 -c 2 -a 0 -i 30 -k AGT 
- -t 0.390000000 -s 1 -d -1 -p cbr -e 1000 -c 2 -a 0 -i 30 -k AGT
h -t 0.390000000 -s 1 -d -1 -p cbr -e 1000 -c 2 -a 0 -i 30 -k AGT
+ -t 0.390000000 -s 1 -d 3 -p cbr -e 1020 -c 2 -a 0 -i 30 -k RTR 
- -t 0.390000000 -s 1 -d 3 -p cbr -e 1020 -c 2 -a 0 -i 30 -k RTR
h -t 0.390000000 -s 1 -d 3 -p cbr -e 1020 -c 2 -a 0 -i 30 -k RTR
r -t 0.391730982 -s 3 -d 3 -p cbr -e 1020 -c 2 -a 0 -i 30 -k AGT
+ -t 0.400000000 -s 1 -d -1 -p cbr -e 1000 -c 2 -a 0 -i 31 -k AGT 
- -t 0.400000000 -s 1 -d -1 -p cbr -e 1000 -c 2 -a 0 -i 31 -k AGT
h -t 0.400000000 -s 1 -d -1 -p cbr -e 1000 -c 2 -a 0 -i 31 -k AGT
+ -t 0.400000000 -s 1 -d 3 -p cbr -e 1020 -c 2 -a 0 -i 31 -k RTR 
- -t 0.400000000 -s 1 -d 3 -p cbr -e 1020 -c 2 -a 0 -i 31 -k RTR
h -t 0.400000000 -s 1 -d 3 -p cbr -e 1020 -c 2 -a 0 -i 31 -k RTR
r -t 0.401730982 -s 3 -d 3 -p cbr -e 1020 -c 2 -a 0 -i 31 -k AGT
+ -t 0.410000000 -s 1 -d -1 -p cbr -e 1000 -c 2 -a 0 -i 32 -k AGT 
- -t 0.410000000 -s 1 -d -1 -p cbr -e 1000 -c 2 -a 0 -i 32 -k AGT
h -t 0.410000000 -s 1 -d -1 -p cbr -e 1000 -c 2 -a 0 -i 32 -k AGT
+ -t 0.410000000 -s 1 -d 3 -p cbr -e 1020 -c 2 -a 0 -i 32 -k RTR 
- -t 0.410000000 -s 1 -d 3 -p cbr -e 1020 -c 2 -a 0 -i 32 -k RTR
h -t 0.410000000 -s 1 -d 3 -p cbr -e 1020 -c 2 -a 0 -i 32 -k RTR
r -t 0.411730982 -s 3 -d 3 -p cbr -e 1020 -c 2 -a 0 -i 32 -k AGT
+ -t 0.420000000 -s 1 -d -1 -p cbr -e 1000 -c 2 -a 0 -i 33 -k AGT 
- -t 0.420000000 -s 1 -d -1 -p cbr -e 1000 -c 2 -a 0 -i 33 -k AGT
h -t 0.420000000 -s 1 -d -1 -p cbr -e 1000 -c 2 -a 0 -i 33 -k AGT
+ -t 0.420000000 -s 1 -d 3 -p cbr -e 1020 -c 2 -a 0 -i 33 -k RTR 
- -t 0.420000000 -s 1 -d 3 -p cbr -e 1020 -c 2 -a 0 -i 33 -k RTR
h -t 0.420000000 -s 1 -d 3 -p cbr -e 1020 -c 2 -a 0 -i 33 -k RTR
r -t 0.421730982 -s 3 -d 3 -p cbr -e 1020 -c 2 -a 0 -i 33 -k AGT
+ -t 0.430000000 -s 1 -d -1 -p cbr -e 1000 -c 2 -a 0 -i 34 -k AGT 
- -t 0.430000000 -s 1 -d -1 -p cbr -e 1000 -c 2 -a 0 -i 34 -k AGT
h -t 0.430000000 -s 1 -d -1 -p cbr -e 1000 -c 2 -a 0 -i 34 -k AGT
+ -t 0.430000000 -s 1 -d 3 -p cbr -e 1020 -c 2 -a 0 -i 34 -k RTR 
- -t 0.430000000 -s 1 -d 3 -p cbr -e 1020 -c 2 -a 0 -i 34 -k RTR
h -t 0.430000000 -s 1 -d 3 -p cbr -e 1020 -c 2 -a 0 -i 34 -k RTR
r -t 0.431730982 -s 3 -d 3 -p cbr -e 1020 -c 2 -a 0 -i 34 -k AGT
+ -t 0.440000000 -s 1 -d -1 -p cbr -e 1000 -c 2 -a 0 -i 35 -k AGT 
- -t 0.440000000 -s 1 -d -1 -p cbr -e 1000 -c 2 -a 0 -i 35 -k AGT
h -t 0.440000000 -s 1 -d -1 -p cbr -e 1000 -c 2 -a 0 -i 35 -k AGT
+ -t 0.440000000 -s 1 -d 3 -p cbr -e 1020 -c 2 -a 0 -i 35 -k RTR 
- -t 0.440000000 -s 1 -d 3 -p cbr -e 1020 -c 2 -a 0 -i 35 -k RTR
h -t 0.440000000 -s 1 -d 3 -p cbr -e 1020 -c 2 -a 0 -i 35 -k RTR
r -t 0.441730982 -s 3 -d 3 -p cbr -e 1020 -c 2 -a 0 -i 35 -k AGT
+ -t 0.450000000 -s 1 -d -1 -p cbr -e 1000 -c 2 -a 0 -i 36 -k AGT 
- -t 0.450000000 -s 1 -d -1 -p cbr -e 1000 -c 2 -a 0 -i 36 -k AGT
h -t 0.450000000 -s 1 -d -1 -p cbr -e 1000 -c 2 -a 0 -i 36 -k AGT
+ -t 0.450000000 -s 1 -d 3 -p cbr -e 1020 -c 2 -a 0 -i 36 -k RTR 
- -t 0.450000000 -s 1 -d 3 -p cbr -e 1020 -c 2 -a 0 -i 36 -k RTR
h -t 0.450000000 -s 1 -d 3 -p cbr -e 1020 -c 2 -a 0 -i 36 -k RTR
r -t 0.451730982 -s 3 -d 3 -p cbr -e 1020 -c 2 -a 0 -i 36 -k AGT
+ -t 0.460000000 -s 1 -d -1 -p cbr -e 1000 -c 2 -a 0 -i 37 -k AGT 
- -t 0.460000000 -s 1 -d -1 -p cbr -e 1000 -c 2 -a 0 -i 37 -k AGT
h -t 0.460000000 -s 1 -d -1 -p cbr -e 1000 -c 2 -a 0 -i 37 -k AGT
+ -t 0.460000000 -s 1 -d 3 -p cbr -e 1020 -c 2 -a 0 -i 37 -k RTR 
- -t 0.460000000 -s 1 -d 3 -p cbr -e 1020 -c 2 -a 0 -i 37 -k RTR
h -t 0.460000000 -s 1 -d 3 -p cbr -e 1020 -c 2 -a 0 -i 37 -k RTR
r -t 0.461730982 -s 3 -d 3 -p cbr -e 1020 -c 2 -a 0 -i 37 -k AGT
+ -t 0.470000000 -s 1 -d -1 -p cbr -e 1000 -c 2 -a 0 -i 38 -k AGT 
- -t 0.470000000 -s 1 -d -1 -p cbr -e 1000 -c 2 -a 0 -i 38 -k AGT
h -t 0.470000000 -s 1 -d -1 -p cbr -e 1000 -c 2 -a 0 -i 38 -k AGT
+ -t 0.470000000 -s 1 -d 3 -p cbr -e 1020 -c 2 -a 0 -i 38 -k RTR 
- -t 0.470000000 -s 1 -d 3 -p cbr -e 1020 -c 2 -a 0 -i 38 -k RTR
h -t 0.470000000 -s 1 -d 3 -p cbr -e 1020 -c 2 -a 0 -i 38 -k RTR
r -t 0.471730982 -s 3 -d 3 -p cbr -e 1020 -c 2 -a 0 -i 38 -k AGT
+ -t 0.480000000 -s 1 -d -1 -p cbr -e 1000 -c 2 -a 0 -i 39 -k AGT 
- -t 0.480000000 -s 1 -d -1 -p cbr -e 1000 -c 2 -a 0 -i 39 -k AGT
h -t 0.480000000 -s 1 -d -1 -p cbr -e 1000 -c 2 -a 0 -i 39 -k AGT
+ -t 0.480000000 -s 1 -d 3 -p cbr -e 1020 -c 2 -a 0 -i 39 -k RTR 
- -t 0.480000000 -s 1 -d 3 -p cbr -e 1020 -c 2 -a 0 -i 39 -k RTR
h -t 0.480000000 -s 1 -d 3 -p cbr -e 1020 -c 2 -a 0 -i 39 -k RTR
r -t 0.481730982 -s 3 -d 3 -p cbr -e 1020 -c 2 -a 0 -i 39 -k AGT
+ -t 0.490000000 -s 1 -d -1 -p cbr -e 1000 -c 2 -a 0 -i 40 -k AGT 
- -t 0.490000000 -s 1 -d -1 -p cbr -e 1000 -c 2 -a 0 -i 40 -k AGT
h -t 0.490000000 -s 1 -d -1 -p cbr -e 1000 -c 2 -a 0 -i 40 -k AGT
+ -t 0.490000000 -s 1 -d 3 -p cbr -e 1020 -c 2 -a 0 -i 40 -k RTR 
- -t 0.490000000 -s 1 -d 3 -p cbr -e 1020 -c 2 -a 0 -i 40 -k RTR
h -t 0.490000000 -s 1 -d 3 -p cbr -e 1020 -c 2 -a 0 -i 40 -k RTR
r -t 0.491730982 -s 3 -d 3 -p cbr -e 1020 -c 2 -a 0 -i 40 -k AGT
+ -t 0.500000000 -s 3 -d -1 -p cbr -e 1000 -c 2 -a 0 -i 41 -k AGT 
- -t 0.500000000 -s 3 -d -1 -p cbr -e 1000 -c 2 -a 0 -i 41 -k AGT
h -t 0.500000000 -s 3 -d -1 -p cbr -e 1000 -c 2 -a 0 -i 41 -k AGT
+ -t 0.500000000 -s 3 -d -1 -p AODV -e 48 -c 2 -a 0 -i 0 -k RTR 
- -t 0.500000000 -s 3 -d -1 -p AODV -e 48 -c 2 -a 0 -i 0 -k RTR
h -t 0.500000000 -s 3 -d -1 -p AODV -e 48 -c 2 -a 0 -i 0 -k RTR
+ -t 0.500000000 -s 1 -d -1 -p cbr -e 1000 -c 2 -a 0 -i 42 -k AGT 
- -t 0.500000000 -s 1 -d -1 -p cbr -e 1000 -c 2 -a 0 -i 42 -k AGT
h -t 0.500000000 -s 1 -d -1 -p cbr -e 1000 -c 2 -a 0 -i 42 -k AGT
+ -t 0.500000000 -s 1 -d 3 -p cbr -e 1020 -c 2 -a 0 -i 42 -k RTR 
- -t 0.500000000 -s 1 -d 3 -p cbr -e 1020 -c 2 -a 0 -i 42 -k RTR
h -t 0.500000000 -s 1 -d 3 -p cbr -e 1020 -c 2 -a 0 -i 42 -k RTR
r -t 0.503125248 -s 3 -d 3 -p cbr -e 1020 -c 2 -a 0 -i 42 -k AGT
+ -t 0.510000000 -s 3 -d -1 -p cbr -e 1000 -c 2 -a 0 -i 43 -k AGT 
- -t 0.510000000 -s 3 -d -1 -p cbr -e 1000 -c 2 -a 0 -i 43 -k AGT
h -t 0.510000000 -s 3 -d -1 -p cbr -e 1000 -c 2 -a 0 -i 43 -k AGT
+ -t 0.510000000 -s 1 -d -1 -p cbr -e 1000 -c 2 -a 0 -i 44 -k AGT 
- -t 0.510000000 -s 1 -d -1 -p cbr -e 1000 -c 2 -a 0 -i 44 -k AGT
h -t 0.510000000 -s 1 -d -1 -p cbr -e 1000 -c 2 -a 0 -i 44 -k AGT
+ -t 0.510000000 -s 1 -d 3 -p cbr -e 1020 -c 2 -a 0 -i 44 -k RTR 
- -t 0.510000000 -s 1 -d 3 -p cbr -e 1020 -c 2 -a 0 -i 44 -k RTR
h -t 0.510000000 -s 1 -d 3 -p cbr -e 1020 -c 2 -a 0 -i 44 -k RTR
r -t 0.511730982 -s 3 -d 3 -p cbr -e 1020 -c 2 -a 0 -i 44 -k AGT
+ -t 0.520000000 -s 3 -d -1 -p cbr -e 1000 -c 2 -a 0 -i 45 -k AGT 
- -t 0.520000000 -s 3 -d -1 -p cbr -e 1000 -c 2 -a 0 -i 45 -k AGT
h -t 0.520000000 -s 3 -d -1 -p cbr -e 1000 -c 2 -a 0 -i 45 -k AGT
+ -t 0.520000000 -s 1 -d -1 -p cbr -e 1000 -c 2 -a 0 -i 46 -k AGT 
- -t 0.520000000 -s 1 -d -1 -p cbr -e 1000 -c 2 -a 0 -i 46 -k AGT
h -t 0.520000000 -s 1 -d -1 -p cbr -e 1000 -c 2 -a 0 -i 46 -k AGT
+ -t 0.520000000 -s 1 -d 3 -p cbr -e 1020 -c 2 -a 0 -i 46 -k RTR 
- -t 0.520000000 -s 1 -d 3 -p cbr -e 1020 -c 2 -a 0 -i 46 -k RTR
h -t 0.520000000 -s 1 -d 3 -p cbr -e 1020 -c 2 -a 0 -i 46 -k RTR
r -t 0.521730982 -s 3 -d 3 -p cbr -e 1020 -c 2 -a 0 -i 46 -k AGT
+ -t 0.530000000 -s 3 -d -1 -p cbr -e 1000 -c 2 -a 0 -i 47 -k AGT 
- -t 0.530000000 -s 3 -d -1 -p cbr -e 1000 -c 2 -a 0 -i 47 -k AGT
h -t 0.530000000 -s 3 -d -1 -p cbr -e 1000 -c 2 -a 0 -i 47 -k AGT
+ -t 0.530000000 -s 1 -d -1 -p cbr -e 1000 -c 2 -a 0 -i 48 -k AGT 
- -t 0.530000000 -s 1 -d -1 -p cbr -e 1000 -c 2 -a 0 -i 48 -k AGT
h -t 0.530000000 -s 1 -d -1 -p cbr -e 1000 -c 2 -a 0 -i 48 -k AGT
+ -t 0.530000000 -s 1 -d 3 -p cbr -e 1020 -c 2 -a 0 -i 48 -k RTR 
- -t 0.530000000 -s 1 -d 3 -p cbr -e 1020 -c 2 -a 0 -i 48 -k RTR
h -t 0.530000000 -s 1 -d 3 -p cbr -e 1020 -c 2 -a 0 -i 48 -k RTR
r -t 0.531730982 -s 3 -d 3 -p cbr -e 1020 -c 2 -a 0 -i 48 -k AGT
+ -t 0.540000000 -s 3 -d -1 -p cbr -e 1000 -c 2 -a 0 -i 49 -k AGT 
- -t 0.540000000 -s 3 -d -1 -p cbr -e 1000 -c 2 -a 0 -i 49 -k AGT
h -t 0.540000000 -s 3 -d -1 -p cbr -e 1000 -c 2 -a 0 -i 49 -k AGT
+ -t 0.540000000 -s 1 -d -1 -p cbr -e 1000 -c 2 -a 0 -i 50 -k AGT 
- -t 0.540000000 -s 1 -d -1 -p cbr -e 1000 -c 2 -a 0 -i 50 -k AGT
h -t 0.540000000 -s 1 -d -1 -p cbr -e 1000 -c 2 -a 0 -i 50 -k AGT
+ -t 0.540000000 -s 1 -d 3 -p cbr -e 1020 -c 2 -a 0 -i 50 -k RTR 
- -t 0.540000000 -s 1 -d 3 -p cbr -e 1020 -c 2 -a 0 -i 50 -k RTR
h -t 0.540000000 -s 1 -d 3 -p cbr -e 1020 -c 2 -a 0 -i 50 -k RTR
r -t 0.541730982 -s 3 -d 3 -p cbr -e 1020 -c 2 -a 0 -i 50 -k AGT
+ -t 0.550000000 -s 3 -d -1 -p cbr -e 1000 -c 2 -a 0 -i 51 -k AGT 
- -t 0.550000000 -s 3 -d -1 -p cbr -e 1000 -c 2 -a 0 -i 51 -k AGT
h -t 0.550000000 -s 3 -d -1 -p cbr -e 1000 -c 2 -a 0 -i 51 -k AGT
+ -t 0.550000000 -s 1 -d -1 -p cbr -e 1000 -c 2 -a 0 -i 52 -k AGT 
- -t 0.550000000 -s 1 -d -1 -p cbr -e 1000 -c 2 -a 0 -i 52 -k AGT
h -t 0.550000000 -s 1 -d -1 -p cbr -e 1000 -c 2 -a 0 -i 52 -k AGT
+ -t 0.550000000 -s 1 -d 3 -p cbr -e 1020 -c 2 -a 0 -i 52 -k RTR 
- -t 0.550000000 -s 1 -d 3 -p cbr -e 1020 -c 2 -a 0 -i 52 -k RTR
h -t 0.550000000 -s 1 -d 3 -p cbr -e 1020 -c 2 -a 0 -i 52 -k RTR
r -t 0.551730982 -s 3 -d 3 -p cbr -e 1020 -c 2 -a 0 -i 52 -k AGT
+ -t 0.560000000 -s 3 -d -1 -p cbr -e 1000 -c 2 -a 0 -i 53 -k AGT 
- -t 0.560000000 -s 3 -d -1 -p cbr -e 1000 -c 2 -a 0 -i 53 -k AGT
h -t 0.560000000 -s 3 -d -1 -p cbr -e 1000 -c 2 -a 0 -i 53 -k AGT
+ -t 0.560000000 -s 1 -d -1 -p cbr -e 1000 -c 2 -a 0 -i 54 -k AGT 
- -t 0.560000000 -s 1 -d -1 -p cbr -e 1000 -c 2 -a 0 -i 54 -k AGT
h -t 0.560000000 -s 1 -d -1 -p cbr -e 1000 -c 2 -a 0 -i 54 -k AGT
+ -t 0.560000000 -s 1 -d 3 -p cbr -e 1020 -c 2 -a 0 -i 54 -k RTR 
- -t 0.560000000 -s 1 -d 3 -p cbr -e 1020 -c 2 -a 0 -i 54 -k RTR
h -t 0.560000000 -s 1 -d 3 -p cbr -e 1020 -c 2 -a 0 -i 54 -k RTR
r -t 0.561730982 -s 3 -d 3 -p cbr -e 1020 -c 2 -a 0 -i 54 -k AGT
+ -t 0.570000000 -s 3 -d -1 -p cbr -e 1000 -c 2 -a 0 -i 55 -k AGT 
- -t 0.570000000 -s 3 -d -1 -p cbr -e 1000 -c 2 -a 0 -i 55 -k AGT
h -t 0.570000000 -s 3 -d -1 -p cbr -e 1000 -c 2 -a 0 -i 55 -k AGT
+ -t 0.570000000 -s 1 -d -1 -p cbr -e 1000 -c 2 -a 0 -i 56 -k AGT 
- -t 0.570000000 -s 1 -d -1 -p cbr -e 1000 -c 2 -a 0 -i 56 -k AGT
h -t 0.570000000 -s 1 -d -1 -p cbr -e 1000 -c 2 -a 0 -i 56 -k AGT
+ -t 0.570000000 -s 1 -d 3 -p cbr -e 1020 -c 2 -a 0 -i 56 -k RTR 
- -t 0.570000000 -s 1 -d 3 -p cbr -e 1020 -c 2 -a 0 -i 56 -k RTR
h -t 0.570000000 -s 1 -d 3 -p cbr -e 1020 -c 2 -a 0 -i 56 -k RTR
r -t 0.571730982 -s 3 -d 3 -p cbr -e 1020 -c 2 -a 0 -i 56 -k AGT
+ -t 0.580000000 -s 3 -d -1 -p cbr -e 1000 -c 2 -a 0 -i 57 -k AGT 
- -t 0.580000000 -s 3 -d -1 -p cbr -e 1000 -c 2 -a 0 -i 57 -k AGT
h -t 0.580000000 -s 3 -d -1 -p cbr -e 1000 -c 2 -a 0 -i 57 -k AGT
+ -t 0.580000000 -s 1 -d -1 -p cbr -e 1000 -c 2 -a 0 -i 58 -k AGT 
- -t 0.580000000 -s 1 -d -1 -p cbr -e 1000 -c 2 -a 0 -i 58 -k AGT
h -t 0.580000000 -s 1 -d -1 -p cbr -e 1000 -c 2 -a 0 -i 58 -k AGT
+ -t 0.580000000 -s 1 -d 3 -p cbr -e 1020 -c 2 -a 0 -i 58 -k RTR 
- -t 0.580000000 -s 1 -d 3 -p cbr -e 1020 -c 2 -a 0 -i 58 -k RTR
h -t 0.580000000 -s 1 -d 3 -p cbr -e 1020 -c 2 -a 0 -i 58 -k RTR
r -t 0.581730982 -s 3 -d 3 -p cbr -e 1020 -c 2 -a 0 -i 58 -k AGT
+ -t 0.590000000 -s 3 -d -1 -p cbr -e 1000 -c 2 -a 0 -i 59 -k AGT 
- -t 0.590000000 -s 3 -d -1 -p cbr -e 1000 -c 2 -a 0 -i 59 -k AGT
h -t 0.590000000 -s 3 -d -1 -p cbr -e 1000 -c 2 -a 0 -i 59 -k AGT
+ -t 0.590000000 -s 1 -d -1 -p cbr -e 1000 -c 2 -a 0 -i 60 -k AGT 
- -t 0.590000000 -s 1 -d -1 -p cbr -e 1000 -c 2 -a 0 -i 60 -k AGT
h -t 0.590000000 -s 1 -d -1 -p cbr -e 1000 -c 2 -a 0 -i 60 -k AGT
+ -t 0.590000000 -s 1 -d 3 -p cbr -e 1020 -c 2 -a 0 -i 60 -k RTR 
- -t 0.590000000 -s 1 -d 3 -p cbr -e 1020 -c 2 -a 0 -i 60 -k RTR
h -t 0.590000000 -s 1 -d 3 -p cbr -e 1020 -c 2 -a 0 -i 60 -k RTR
r -t 0.591730982 -s 3 -d 3 -p cbr -e 1020 -c 2 -a 0 -i 60 -k AGT
+ -t 0.600000000 -s 3 -d -1 -p cbr -e 1000 -c 2 -a 0 -i 61 -k AGT 
- -t 0.600000000 -s 3 -d -1 -p cbr -e 1000 -c 2 -a 0 -i 61 -k AGT
h -t 0.600000000 -s 3 -d -1 -p cbr -e 1000 -c 2 -a 0 -i 61 -k AGT
+ -t 0.600000000 -s 1 -d -1 -p cbr -e 1000 -c 2 -a 0 -i 62 -k AGT 
- -t 0.600000000 -s 1 -d -1 -p cbr -e 1000 -c 2 -a 0 -i 62 -k AGT
h -t 0.600000000 -s 1 -d -1 -p cbr -e 1000 -c 2 -a 0 -i 62 -k AGT
+ -t 0.600000000 -s 1 -d 3 -p cbr -e 1020 -c 2 -a 0 -i 62 -k RTR 
- -t 0.600000000 -s 1 -d 3 -p cbr -e 1020 -c 2 -a 0 -i 62 -k RTR
h -t 0.600000000 -s 1 -d 3 -p cbr -e 1020 -c 2 -a 0 -i 62 -k RTR
r -t 0.601730982 -s 3 -d 3 -p cbr -e 1020 -c 2 -a 0 -i 62 -k AGT
+ -t 0.610000000 -s 3 -d -1 -p cbr -e 1000 -c 2 -a 0 -i 63 -k AGT 
- -t 0.610000000 -s 3 -d -1 -p cbr -e 1000 -c 2 -a 0 -i 63 -k AGT
h -t 0.610000000 -s 3 -d -1 -p cbr -e 1000 -c 2 -a 0 -i 63 -k AGT
+ -t 0.610000000 -s 1 -d -1 -p cbr -e 1000 -c 2 -a 0 -i 64 -k AGT 
- -t 0.610000000 -s 1 -d -1 -p cbr -e 1000 -c 2 -a 0 -i 64 -k AGT
h -t 0.610000000 -s 1 -d -1 -p cbr -e 1000 -c 2 -a 0 -i 64 -k AGT
+ -t 0.610000000 -s 1 -d 3 -p cbr -e 1020 -c 2 -a 0 -i 64 -k RTR 
- -t 0.610000000 -s 1 -d 3 -p cbr -e 1020 -c 2 -a 0 -i 64 -k RTR
h -t 0.610000000 -s 1 -d 3 -p cbr -e 1020 -c 2 -a 0 -i 64 -k RTR