W -t * -x 600 -y 400
n -t * -s 0  -x 300 -y 200 -Z 0 -z 5  -v circle -c black
n -t * -s 1  -x 158.58000000000001 -y 341.42000000000002 -Z 0 -z 5  -v circle -c black
n -t * -s 2  -x 158.58000000000001 -y 58.579999999999998 -Z 0 -z 5  -v circle -c black
n -t * -s 3  -x 441.42000000000002 -y 58.579999999999998 -Z 0 -z 5  -v circle -c black
n -t * -s 4  -x 441.42000000000002 -y 341.42000000000002 -Z 0 -z 5  -v circle -c black
V -t * -v 1.0a5 -a 0
A -t * -n 1 -p 0 -o 0xffffffff -c 31 -a 1
A -t * -h 1 -m 2147483647 -s 0
n -t 0 -s 0 -S DLABEL -l "Node_0" -L ""
n -t 0 -s 1 -S DLABEL -l "Node_1" -L ""
n -t 0 -s 2 -S DLABEL -l "Node_2" -L ""
n -t 0 -s 3 -S DLABEL -l "Node_3" -L ""
n -t 0 -s 4 -S DLABEL -l "Node_4" -L ""
+ -t 0.100000000 -s 1 -d -1 -p cbr -e 1000 -c 2 -a 0 -i 0 -k AGT 
- -t 0.100000000 -s 1 -d -1 -p cbr -e 1000 -c 2 -a 0 -i 0 -k AGT
h -t 0.100000000 -s 1 -d -1 -p cbr -e 1000 -c 2 -a 0 -i 0 -k AGT
+ -t 0.100000000 -s 1 -d -1 -p AODV -e 48 -c 2 -a 0 -i 0 -k RTR 
- -t 0.100000000 -s 1 -d -1 -p AODV -e 48 -c 2 -a 0 -i 0 -k RTR
h -t 0.100000000 -s 1 -d -1 -p AODV -e 48 -c 2 -a 0 -i 0 -k RTR
r -t 0.100900667 -s 0 -d -1 -p AODV -e 48 -c 2 -a 0 -i 0 -k RTR
+ -t 0.101781893 -s 0 -d -1 -p AODV -e 48 -c 2 -a 0 -i 0 -k RTR 
- -t 0.101781893 -s 0 -d -1 -p AODV -e 48 -c 2 -a 0 -i 0 -k RTR
h -t 0.101781893 -s 0 -d -1 -p AODV -e 48 -c 2 -a 0 -i 0 -k RTR
r -t 0.102682560 -s 4 -d -1 -p AODV -e 48 -c 2 -a 0 -i 0 -k RTR
r -t 0.102682560 -s 3 -d -1 -p AODV -e 48 -c 2 -a 0 -i 0 -k RTR
r -t 0.102682560 -s 2 -d -1 -p AODV -e 48 -c 2 -a 0 -i 0 -k RTR
r -t 0.102682560 -s 1 -d -1 -p AODV -e 48 -c 2 -a 0 -i 0 -k RTR
+ -t 0.102682560 -s 3 -d 0 -p AODV -e 44 -c 2 -a 0 -i 0 -k RTR 
- -t 0.102682560 -s 3 -d 0 -p AODV -e 44 -c 2 -a 0 -i 0 -k RTR
h -t 0.102682560 -s 3 -d 0 -p AODV -e 44 -c 2 -a 0 -i 0 -k RTR
+ -t 0.105812178 -s 2 -d -1 -p AODV -e 48 -c 2 -a 0 -i 0 -k RTR 
- -t 0.105812178 -s 2 -d -1 -p AODV -e 48 -c 2 -a 0 -i 0 -k RTR
h -t 0.105812178 -s 2 -d -1 -p AODV -e 48 -c 2 -a 0 -i 0 -k RTR
+ -t 0.105950318 -s 0 -d 1 -p AODV -e 44 -c 2 -a 0 -i 0 -k RTR 
- -t 0.105950318 -s 0 -d 1 -p AODV -e 44 -c 2 -a 0 -i 0 -k RTR
h -t 0.105950318 -s 0 -d 1 -p AODV -e 44 -c 2 -a 0 -i 0 -k RTR
r -t 0.109555654 -s 0 -d -1 -p AODV -e 48 -c 2 -a 0 -i 0 -k RTR
+ -t 0.110000000 -s 1 -d -1 -p cbr -e 1000 -c 2 -a 0 -i 1 -k AGT 
- -t 0.110000000 -s 1 -d -1 -p cbr -e 1000 -c 2 -a 0 -i 1 -k AGT
h -t 0.110000000 -s 1 -d -1 -p cbr -e 1000 -c 2 -a 0 -i 1 -k AGT
+ -t 0.110548018 -s 1 -d 0 -p cbr -e 1020 -c 2 -a 0 -i 0 -k RTR 
- -t 0.110548018 -s 1 -d 0 -p cbr -e 1020 -c 2 -a 0 -i 0 -k RTR
h -t 0.110548018 -s 1 -d 0 -p cbr -e 1020 -c 2 -a 0 -i 0 -k RTR
+ -t 0.110674115 -s 4 -d -1 -p AODV -e 48 -c 2 -a 0 -i 0 -k RTR 
- -t 0.110674115 -s 4 -d -1 -p AODV -e 48 -c 2 -a 0 -i 0 -k RTR
h -t 0.110674115 -s 4 -d -1 -p AODV -e 48 -c 2 -a 0 -i 0 -k RTR
+ -t 0.112704200 -s 0 -d 3 -p cbr -e 1020 -c 2 -a 0 -i 0 -k RTR 
- -t 0.112704200 -s 0 -d 3 -p cbr -e 1020 -c 2 -a 0 -i 0 -k RTR
h -t 0.112704200 -s 0 -d 3 -p cbr -e 1020 -c 2 -a 0 -i 0 -k RTR
r -t 0.114780381 -s 3 -d 3 -p cbr -e 1020 -c 2 -a 0 -i 0 -k AGT
r -t 0.116649991 -s 0 -d -1 -p AODV -e 48 -c 2 -a 0 -i 0 -k RTR
+ -t 0.120000000 -s 1 -d -1 -p cbr -e 1000 -c 2 -a 0 -i 2 -k AGT 
- -t 0.120000000 -s 1 -d -1 -p cbr -e 1000 -c 2 -a 0 -i 2 -k AGT
h -t 0.120000000 -s 1 -d -1 -p cbr -e 1000 -c 2 -a 0 -i 2 -k AGT
+ -t 0.120000000 -s 1 -d 0 -p cbr -e 1020 -c 2 -a 0 -i 2 -k RTR 
- -t 0.120000000 -s 1 -d 0 -p cbr -e 1020 -c 2 -a 0 -i 2 -k RTR
h -t 0.120000000 -s 1 -d 0 -p cbr -e 1020 -c 2 -a 0 -i 2 -k RTR
+ -t 0.120548018 -s 1 -d 0 -p cbr -e 1020 -c 2 -a 0 -i 1 -k RTR 
- -t 0.120548018 -s 1 -d 0 -p cbr -e 1020 -c 2 -a 0 -i 1 -k RTR
h -t 0.120548018 -s 1 -d 0 -p cbr -e 1020 -c 2 -a 0 -i 1 -k RTR
+ -t 0.121732182 -s 0 -d 3 -p cbr -e 1020 -c 2 -a 0 -i 2 -k RTR 
- -t 0.121732182 -s 0 -d 3 -p cbr -e 1020 -c 2 -a 0 -i 2 -k RTR
h -t 0.121732182 -s 0 -d 3 -p cbr -e 1020 -c 2 -a 0 -i 2 -k RTR
+ -t 0.123929030 -s 0 -d 3 -p cbr -e 1020 -c 2 -a 0 -i 1 -k RTR 
- -t 0.123929030 -s 0 -d 3 -p cbr -e 1020 -c 2 -a 0 -i 1 -k RTR
h -t 0.123929030 -s 0 -d 3 -p cbr -e 1020 -c 2 -a 0 -i 1 -k RTR
r -t 0.126045212 -s 3 -d 3 -p cbr -e 1020 -c 2 -a 0 -i 2 -k AGT
r -t 0.128062061 -s 3 -d 3 -p cbr -e 1020 -c 2 -a 0 -i 1 -k AGT
+ -t 0.130000000 -s 1 -d -1 -p cbr -e 1000 -c 2 -a 0 -i 3 -k AGT 
- -t 0.130000000 -s 1 -d -1 -p cbr -e 1000 -c 2 -a 0 -i 3 -k AGT
h -t 0.130000000 -s 1 -d -1 -p cbr -e 1000 -c 2 -a 0 -i 3 -k AGT
+ -t 0.130000000 -s 1 -d 0 -p cbr -e 1020 -c 2 -a 0 -i 3 -k RTR 
- -t 0.130000000 -s 1 -d 0 -p cbr -e 1020 -c 2 -a 0 -i 3 -k RTR
h -t 0.130000000 -s 1 -d 0 -p cbr -e 1020 -c 2 -a 0 -i 3 -k RTR
+ -t 0.131732182 -s 0 -d 3 -p cbr -e 1020 -c 2 -a 0 -i 3 -k RTR 
- -t 0.131732182 -s 0 -d 3 -p cbr -e 1020 -c 2 -a 0 -i 3 -k RTR
h -t 0.131732182 -s 0 -d 3 -p cbr -e 1020 -c 2 -a 0 -i 3 -k RTR
r -t 0.134168364 -s 3 -d 3 -p cbr -e 1020 -c 2 -a 0 -i 3 -k AGT
+ -t 0.140000000 -s 1 -d -1 -p cbr -e 1000 -c 2 -a 0 -i 4 -k AGT 
- -t 0.140000000 -s 1 -d -1 -p cbr -e 1000 -c 2 -a 0 -i 4 -k AGT
h -t 0.140000000 -s 1 -d -1 -p cbr -e 1000 -c 2 -a 0 -i 4 -k AGT
+ -t 0.140000000 -s 1 -d 0 -p cbr -e 1020 -c 2 -a 0 -i 4 -k RTR 
- -t 0.140000000 -s 1 -d 0 -p cbr -e 1020 -c 2 -a 0 -i 4 -k RTR
h -t 0.140000000 -s 1 -d 0 -p cbr -e 1020 -c 2 -a 0 -i 4 -k RTR
+ -t 0.141732182 -s 0 -d 3 -p cbr -e 1020 -c 2 -a 0 -i 4 -k RTR 
- -t 0.141732182 -s 0 -d 3 -p cbr -e 1020 -c 2 -a 0 -i 4 -k RTR
h -t 0.141732182 -s 0 -d 3 -p cbr -e 1020 -c 2 -a 0 -i 4 -k RTR
r -t 0.144128364 -s 3 -d 3 -p cbr -e 1020 -c 2 -a 0 -i 4 -k AGT
+ -t 0.150000000 -s 1 -d -1 -p cbr -e 1000 -c 2 -a 0 -i 5 -k AGT 
- -t 0.150000000 -s 1 -d -1 -p cbr -e 1000 -c 2 -a 0 -i 5 -k AGT
h -t 0.150000000 -s 1 -d -1 -p cbr -e 1000 -c 2 -a 0 -i 5 -k AGT
+ -t 0.150000000 -s 1 -d 0 -p cbr -e 1020 -c 2 -a 0 -i 5 -k RTR 
- -t 0.150000000 -s 1 -d 0 -p cbr -e 1020 -c 2 -a 0 -i 5 -k RTR
h -t 0.150000000 -s 1 -d 0 -p cbr -e 1020 -c 2 -a 0 -i 5 -k RTR
+ -t 0.151732182 -s 0 -d 3 -p cbr -e 1020 -c 2 -a 0 -i 5 -k RTR 
- -t 0.151732182 -s 0 -d 3 -p cbr -e 1020 -c 2 -a 0 -i 5 -k RTR
h -t 0.151732182 -s 0 -d 3 -p cbr -e 1020 -c 2 -a 0 -i 5 -k RTR
r -t 0.153768364 -s 3 -d 3 -p cbr -e 1020 -c 2 -a 0 -i 5 -k AGT
+ -t 0.160000000 -s 1 -d -1 -p cbr -e 1000 -c 2 -a 0 -i 6 -k AGT 
- -t 0.160000000 -s 1 -d -1 -p cbr -e 1000 -c 2 -a 0 -i 6 -k AGT
h -t 0.160000000 -s 1 -d -1 -p cbr -e 1000 -c 2 -a 0 -i 6 -k AGT
+ -t 0.160000000 -s 1 -d 0 -p cbr -e 1020 -c 2 -a 0 -i 6 -k RTR 
- -t 0.160000000 -s 1 -d 0 -p cbr -e 1020 -c 2 -a 0 -i 6 -k RTR
h -t 0.160000000 -s 1 -d 0 -p cbr -e 1020 -c 2 -a 0 -i 6 -k RTR
+ -t 0.161732182 -s 0 -d 3 -p cbr -e 1020 -c 2 -a 0 -i 6 -k RTR 
- -t 0.161732182 -s 0 -d 3 -p cbr -e 1020 -c 2 -a 0 -i 6 -k RTR
h -t 0.161732182 -s 0 -d 3 -p cbr -e 1020 -c 2 -a 0 -i 6 -k RTR
r -t 0.163868364 -s 3 -d 3 -p cbr -e 1020 -c 2 -a 0 -i 6 -k AGT
+ -t 0.170000000 -s 1 -d -1 -p cbr -e 1000 -c 2 -a 0 -i 7 -k AGT 
- -t 0.170000000 -s 1 -d -1 -p cbr -e 1000 -c 2 -a 0 -i 7 -k AGT
h -t 0.170000000 -s 1 -d -1 -p cbr -e 1000 -c 2 -a 0 -i 7 -k AGT
+ -t 0.170000000 -s 1 -d 0 -p cbr -e 1020 -c 2 -a 0 -i 7 -k RTR 
- -t 0.170000000 -s 1 -d 0 -p cbr -e 1020 -c 2 -a 0 -i 7 -k RTR
h -t 0.170000000 -s 1 -d 0 -p cbr -e 1020 -c 2 -a 0 -i 7 -k RTR
+ -t 0.171732182 -s 0 -d 3 -p cbr -e 1020 -c 2 -a 0 -i 7 -k RTR 
- -t 0.171732182 -s 0 -d 3 -p cbr -e 1020 -c 2 -a 0 -i 7 -k RTR
h -t 0.171732182 -s 0 -d 3 -p cbr -e 1020 -c 2 -a 0 -i 7 -k RTR
r -t 0.173928364 -s 3 -d 3 -p cbr -e 1020 -c 2 -a 0 -i 7 -k AGT
+ -t 0.180000000 -s 1 -d -1 -p cbr -e 1000 -c 2 -a 0 -i 8 -k AGT 
- -t 0.180000000 -s 1 -d -1 -p cbr -e 1000 -c 2 -a 0 -i 8 -k AGT
h -t 0.180000000 -s 1 -d -1 -p cbr -e 1000 -c 2 -a 0 -i 8 -k AGT
+ -t 0.180000000 -s 1 -d 0 -p cbr -e 1020 -c 2 -a 0 -i 8 -k RTR 
- -t 0.180000000 -s 1 -d 0 -p cbr -e 1020 -c 2 -a 0 -i 8 -k RTR
h -t 0.180000000 -s 1 -d 0 -p cbr -e 1020 -c 2 -a 0 -i 8 -k RTR
+ -t 0.181732182 -s 0 -d 3 -p cbr -e 1020 -c 2 -a 0 -i 8 -k RTR 
- -t 0.181732182 -s 0 -d 3 -p cbr -e 1020 -c 2 -a 0 -i 8 -k RTR
h -t 0.181732182 -s 0 -d 3 -p cbr -e 1020 -c 2 -a 0 -i 8 -k RTR
r -t 0.183948364 -s 3 -d 3 -p cbr -e 1020 -c 2 -a 0 -i 8 -k AGT
+ -t 0.190000000 -s 1 -d -1 -p cbr -e 1000 -c 2 -a 0 -i 9 -k AGT 
- -t 0.190000000 -s 1 -d -1 -p cbr -e 1000 -c 2 -a 0 -i 9 -k AGT
h -t 0.190000000 -s 1 -d -1 -p cbr -e 1000 -c 2 -a 0 -i 9 -k AGT
+ -t 0.190000000 -s 1 -d 0 -p cbr -e 1020 -c 2 -a 0 -i 9 -k RTR 
- -t 0.190000000 -s 1 -d 0 -p cbr -e 1020 -c 2 -a 0 -i 9 -k RTR
h -t 0.190000000 -s 1 -d 0 -p cbr -e 1020 -c 2 -a 0 -i 9 -k RTR
+ -t 0.191732182 -s 0 -d 3 -p cbr -e 1020 -c 2 -a 0 -i 9 -k RTR 
- -t 0.191732182 -s 0 -d 3 -p cbr -e 1020 -c 2 -a 0 -i 9 -k RTR
h -t 0.191732182 -s 0 -d 3 -p cbr -e 1020 -c 2 -a 0 -i 9 -k RTR
r -t 0.193788364 -s 3 -d 3 -p cbr -e 1020 -c 2 -a 0 -i 9 -k AGT
+ -t 0.200000000 -s 1 -d -1 -p cbr -e 1000 -c 2 -a 0 -i 10 -k AGT 
- -t 0.200000000 -s 1 -d -1 -p cbr -e 1000 -c 2 -a 0 -i 10 -k AGT
h -t 0.200000000 -s 1 -d -1 -p cbr -e 1000 -c 2 -a 0 -i 10 -k AGT
+ -t 0.200000000 -s 1 -d 0 -p cbr -e 1020 -c 2 -a 0 -i 10 -k RTR 
- -t 0.200000000 -s 1 -d 0 -p cbr -e 1020 -c 2 -a 0 -i 10 -k RTR
h -t 0.200000000 -s 1 -d 0 -p cbr -e 1020 -c 2 -a 0 -i 10 -k RTR
+ -t 0.201732182 -s 0 -d 3 -p cbr -e 1020 -c 2 -a 0 -i 10 -k RTR 
- -t 0.201732182 -s 0 -d 3 -p cbr -e 1020 -c 2 -a 0 -i 10 -k RTR
h -t 0.201732182 -s 0 -d 3 -p cbr -e 1020 -c 2 -a 0 -i 10 -k RTR
r -t 0.204228364 -s 3 -d 3 -p cbr -e 1020 -c 2 -a 0 -i 10 -k AGT
+ -t 0.210000000 -s 1 -d -1 -p cbr -e 1000 -c 2 -a 0 -i 11 -k AGT 
- -t 0.210000000 -s 1 -d -1 -p cbr -e 1000 -c 2 -a 0 -i 11 -k AGT
h -t 0.210000000 -s 1 -d -1 -p cbr -e 1000 -c 2 -a 0 -i 11 -k AGT
+ -t 0.210000000 -s 1 -d 0 -p cbr -e 1020 -c 2 -a 0 -i 11 -k RTR 
- -t 0.210000000 -s 1 -d 0 -p cbr -e 1020 -c 2 -a 0 -i 11 -k RTR
h -t 0.210000000 -s 1 -d 0 -p cbr -e 1020 -c 2 -a 0 -i 11 -k RTR
+ -t 0.211732182 -s 0 -d 3 -p cbr -e 1020 -c 2 -a 0 -i 11 -k RTR 
- -t 0.211732182 -s 0 -d 3 -p cbr -e 1020 -c 2 -a 0 -i 11 -k RTR
h -t 0.211732182 -s 0 -d 3 -p cbr -e 1020 -c 2 -a 0 -i 11 -k RTR
r -t 0.214008364 -s 3 -d 3 -p cbr -e 1020 -c 2 -a 0 -i 11 -k AGT
+ -t 0.220000000 -s 1 -d -1 -p cbr -e 1000 -c 2 -a 0 -i 12 -k AGT 
- -t 0.220000000 -s 1 -d -1 -p cbr -e 1000 -c 2 -a 0 -i 12 -k AGT
h -t 0.220000000 -s 1 -d -1 -p cbr -e 1000 -c 2 -a 0 -i 12 -k AGT
+ -t 0.220000000 -s 1 -d 0 -p cbr -e 1020 -c 2 -a 0 -i 12 -k RTR 
- -t 0.220000000 -s 1 -d 0 -p cbr -e 1020 -c 2 -a 0 -i 12 -k RTR
h -t 0.220000000 -s 1 -d 0 -p cbr -e 1020 -c 2 -a 0 -i 12 -k RTR
+ -t 0.221732182 -s 0 -d 3 -p cbr -e 1020 -c 2 -a 0 -i 12 -k RTR 
- -t 0.221732182 -s 0 -d 3 -p cbr -e 1020 -c 2 -a 0 -i 12 -k RTR
h -t 0.221732182 -s 0 -d 3 -p cbr -e 1020 -c 2 -a 0 -i 12 -k RTR
r -t 0.223948364 -s 3 -d 3 -p cbr -e 1020 -c 2 -a 0 -i 12 -k AGT
+ -t 0.230000000 -s 1 -d -1 -p cbr -e 1000 -c 2 -a 0 -i 13 -k AGT 
- -t 0.230000000 -s 1 -d -1 -p cbr -e 1000 -c 2 -a 0 -i 13 -k AGT
h -t 0.230000000 -s 1 -d -1 -p cbr -e 1000 -c 2 -a 0 -i 13 -k AGT
+ -t 0.230000000 -s 1 -d 0 -p cbr -e 1020 -c 2 -a 0 -i 13 -k RTR 
- -t 0.230000000 -s 1 -d 0 -p cbr -e 1020 -c 2 -a 0 -i 13 -k RTR
h -t 0.230000000 -s 1 -d 0 -p cbr -e 1020 -c 2 -a 0 -i 13 -k RTR
+ -t 0.231732182 -s 0 -d 3 -p cbr -e 1020 -c 2 -a 0 -i 13 -k RTR 
- -t 0.231732182 -s 0 -d 3 -p cbr -e 1020 -c 2 -a 0 -i 13 -k RTR
h -t 0.231732182 -s 0 -d 3 -p cbr -e 1020 -c 2 -a 0 -i 13 -k RTR
r -t 0.233948364 -s 3 -d 3 -p cbr -e 1020 -c 2 -a 0 -i 13 -k AGT
+ -t 0.240000000 -s 1 -d -1 -p cbr -e 1000 -c 2 -a 0 -i 14 -k AGT 
- -t 0.240000000 -s 1 -d -1 -p cbr -e 1000 -c 2 -a 0 -i 14 -k AGT
h -t 0.240000000 -s 1 -d -1 -p cbr -e 1000 -c 2 -a 0 -i 14 -k AGT
+ -t 0.240000000 -s 1 -d 0 -p cbr -e 1020 -c 2 -a 0 -i 14 -k RTR 
- -t 0.240000000 -s 1 -d 0 -p cbr -e 1020 -c 2 -a 0 -i 14 -k RTR
h -t 0.240000000 -s 1 -d 0 -p cbr -e 1020 -c 2 -a 0 -i 14 -k RTR
+ -t 0.241732182 -s 0 -d 3 -p cbr -e 1020 -c 2 -a 0 -i 14 -k RTR 
- -t 0.241732182 -s 0 -d 3 -p cbr -e 1020 -c 2 -a 0 -i 14 -k RTR
h -t 0.241732182 -s 0 -d 3 -p cbr -e 1020 -c 2 -a 0 -i 14 -k RTR
r -t 0.243728364 -s 3 -d 3 -p cbr -e 1020 -c 2 -a 0 -i 14 -k AGT
+ -t 0.250000000 -s 1 -d -1 -p cbr -e 1000 -c 2 -a 0 -i 15 -k AGT 
- -t 0.250000000 -s 1 -d -1 -p cbr -e 1000 -c 2 -a 0 -i 15 -k AGT
h -t 0.250000000 -s 1 -d -1 -p cbr -e 1000 -c 2 -a 0 -i 15 -k AGT
+ -t 0.250000000 -s 1 -d 0 -p cbr -e 1020 -c 2 -a 0 -i 15 -k RTR 
- -t 0.250000000 -s 1 -d 0 -p cbr -e 1020 -c 2 -a 0 -i 15 -k RTR
h -t 0.250000000 -s 1 -d 0 -p cbr -e 1020 -c 2 -a 0 -i 15 -k RTR
+ -t 0.251732182 -s 0 -d 3 -p cbr -e 1020 -c 2 -a 0 -i 15 -k RTR 
- -t 0.251732182 -s 0 -d 3 -p cbr -e 1020 -c 2 -a 0 -i 15 -k RTR
h -t 0.251732182 -s 0 -d 3 -p cbr -e 1020 -c 2 -a 0 -i 15 -k RTR
r -t 0.254008364 -s 3 -d 3 -p cbr -e 1020 -c 2 -a 0 -i 15 -k AGT
+ -t 0.260000000 -s 1 -d -1 -p cbr -e 1000 -c 2 -a 0 -i 16 -k AGT 
- -t 0.260000000 -s 1 -d -1 -p cbr -e 1000 -c 2 -a 0 -i 16 -k AGT
h -t 0.260000000 -s 1 -d -1 -p cbr -e 1000 -c 2 -a 0 -i 16 -k AGT
+ -t 0.260000000 -s 1 -d 0 -p cbr -e 1020 -c 2 -a 0 -i 16 -k RTR 
- -t 0.260000000 -s 1 -d 0 -p cbr -e 1020 -c 2 -a 0 -i 16 -k RTR
h -t 0.260000000 -s 1 -d 0 -p cbr -e 1020 -c 2 -a 0 -i 16 -k RTR
+ -t 0.261732182 -s 0 -d 3 -p cbr -e 1020 -c 2 -a 0 -i 16 -k RTR 
- -t 0.261732182 -s 0 -d 3 -p cbr -e 1020 -c 2 -a 0 -i 16 -k RTR
h -t 0.261732182 -s 0 -d 3 -p cbr -e 1020 -c 2 -a 0 -i 16 -k RTR
r -t 0.263968364 -s 3 -d 3 -p cbr -e 1020 -c 2 -a 0 -i 16 -k AGT
+ -t 0.270000000 -s 1 -d -1 -p cbr -e 1000 -c 2 -a 0 -i 17 -k AGT 
- -t 0.270000000 -s 1 -d -1 -p cbr -e 1000 -c 2 -a 0 -i 17 -k AGT
h -t 0.270000000 -s 1 -d -1 -p cbr -e 1000 -c 2 -a 0 -i 17 -k AGT
+ -t 0.270000000 -s 1 -d 0 -p cbr -e 1020 -c 2 -a 0 -i 17 -k RTR 
- -t 0.270000000 -s 1 -d 0 -p cbr -e 1020 -c 2 -a 0 -i 17 -k RTR
h -t 0.270000000 -s 1 -d 0 -p cbr -e 1020 -c 2 -a 0 -i 17 -k RTR
+ -t 0.271732182 -s 0 -d 3 -p cbr -e 1020 -c 2 -a 0 -i 17 -k RTR 
- -t 0.271732182 -s 0 -d 3 -p cbr -e 1020 -c 2 -a 0 -i 17 -k RTR
h -t 0.271732182 -s 0 -d 3 -p cbr -e 1020 -c 2 -a 0 -i 17 -k RTR
r -t 0.273768364 -s 3 -d 3 -p cbr -e 1020 -c 2 -a 0 -i 17 -k AGT
+ -t 0.280000000 -s 1 -d -1 -p cbr -e 1000 -c 2 -a 0 -i 18 -k AGT 
- -t 0.280000000 -s 1 -d -1 -p cbr -e 1000 -c 2 -a 0 -i 18 -k AGT
h -t 0.280000000 -s 1 -d -1 -p cbr -e 1000 -c 2 -a 0 -i 18 -k AGT
+ -t 0.280000000 -s 1 -d 0 -p cbr -e 1020 -c 2 -a 0 -i 18 -k RTR 
- -t 0.280000000 -s 1 -d 0 -p cbr -e 1020 -c 2 -a 0 -i 18 -k RTR
h -t 0.280000000 -s 1 -d 0 -p cbr -e 1020 -c 2 -a 0 -i 18 -k RTR
+ -t 0.281732182 -s 0 -d 3 -p cbr -e 1020 -c 2 -a 0 -i 18 -k RTR 
- -t 0.281732182 -s 0 -d 3 -p cbr -e 1020 -c 2 -a 0 -i 18 -k RTR
h -t 0.281732182 -s 0 -d 3 -p cbr -e 1020 -c 2 -a 0 -i 18 -k RTR
r -t 0.283928364 -s 3 -d 3 -p cbr -e 1020 -c 2 -a 0 -i 18 -k AGT
+ -t 0.290000000 -s 1 -d -1 -p cbr -e 1000 -c 2 -a 0 -i 19 -k AGT 
- -t 0.290000000 -s 1 -d -1 -p cbr -e 1000 -c 2 -a 0 -i 19 -k AGT
h -t 0.290000000 -s 1 -d -1 -p cbr -e 1000 -c 2 -a 0 -i 19 -k AGT
+ -t 0.290000000 -s 1 -d 0 -p cbr -e 1020 -c 2 -a 0 -i 19 -k RTR 
- -t 0.290000000 -s 1 -d 0 -p cbr -e 1020 -c 2 -a 0 -i 19 -k RTR
h -t 0.290000000 -s 1 -d 0 -p cbr -e 1020 -c 2 -a 0 -i 19 -k RTR
+ -t 0.291732182 -s 0 -d 3 -p cbr -e 1020 -c 2 -a 0 -i 19 -k RTR 
- -t 0.291732182 -s 0 -d 3 -p cbr -e 1020 -c 2 -a 0 -i 19 -k RTR
h -t 0.291732182 -s 0 -d 3 -p cbr -e 1020 -c 2 -a 0 -i 19 -k RTR
r -t 0.293988364 -s 3 -d 3 -p cbr -e 1020 -c 2 -a 0 -i 19 -k AGT
+ -t 0.300000000 -s 2 -d -1 -p tcp -e 40 -c 2 -a 0 -i 20 -k AGT 
- -t 0.300000000 -s 2 -d -1 -p tcp -e 40 -c 2 -a 0 -i 20 -k AGT
h -t 0.300000000 -s 2 -d -1 -p tcp -e 40 -c 2 -a 0 -i 20 -k AGT
+ -t 0.300000000 -s 2 -d -1 -p AODV -e 48 -c 2 -a 0 -i 0 -k RTR 
- -t 0.300000000 -s 2 -d -1 -p AODV -e 48 -c 2 -a 0 -i 0 -k RTR
h -t 0.300000000 -s 2 -d -1 -p AODV -e 48 -c 2 -a 0 -i 0 -k RTR
+ -t 0.300000000 -s 1 -d -1 -p cbr -e 1000 -c 2 -a 0 -i 21 -k AGT 
- -t 0.300000000 -s 1 -d -1 -p cbr -e 1000 -c 2 -a 0 -i 21 -k AGT
h -t 0.300000000 -s 1 -d -1 -p cbr -e 1000 -c 2 -a 0 -i 21 -k AGT
+ -t 0.300000000 -s 1 -d 0 -p cbr -e 1020 -c 2 -a 0 -i 21 -k RTR 
- -t 0.300000000 -s 1 -d 0 -p cbr -e 1020 -c 2 -a 0 -i 21 -k RTR
h -t 0.300000000 -s 1 -d 0 -p cbr -e 1020 -c 2 -a 0 -i 21 -k RTR
+ -t 0.303527125 -s 0 -d 3 -p cbr -e 1020 -c 2 -a 0 -i 21 -k RTR 
- -t 0.303527125 -s 0 -d 3 -p cbr -e 1020 -c 2 -a 0 -i 21 -k RTR
h -t 0.303527125 -s 0 -d 3 -p cbr -e 1020 -c 2 -a 0 -i 21 -k RTR
r -t 0.305643306 -s 3 -d 3 -p cbr -e 1020 -c 2 -a 0 -i 21 -k AGT
+ -t 0.310000000 -s 1 -d -1 -p cbr -e 1000 -c 2 -a 0 -i 22 -k AGT 
- -t 0.310000000 -s 1 -d -1 -p cbr -e 1000 -c 2 -a 0 -i 22 -k AGT
h -t 0.310000000 -s 1 -d -1 -p cbr -e 1000 -c 2 -a 0 -i 22 -k AGT
+ -t 0.310000000 -s 1 -d 0 -p cbr -e 1020 -c 2 -a 0 -i 22 -k RTR 
- -t 0.310000000 -s 1 -d 0 -p cbr -e 1020 -c 2 -a 0 -i 22 -k RTR
h -t 0.310000000 -s 1 -d 0 -p cbr -e 1020 -c 2 -a 0 -i 22 -k RTR
+ -t 0.311732182 -s 0 -d 3 -p cbr -e 1020 -c 2 -a 0 -i 22 -k RTR 
- -t 0.311732182 -s 0 -d 3 -p cbr -e 1020 -c 2 -a 0 -i 22 -k RTR
h -t 0.311732182 -s 0 -d 3 -p cbr -e 1020 -c 2 -a 0 -i 22 -k RTR
r -t 0.313848364 -s 3 -d 3 -p cbr -e 1020 -c 2 -a 0 -i 22 -k AGT
+ -t 0.320000000 -s 1 -d -1 -p cbr -e 1000 -c 2 -a 0 -i 23 -k AGT 
- -t 0.320000000 -s 1 -d -1 -p cbr -e 1000 -c 2 -a 0 -i 23 -k AGT
h -t 0.320000000 -s 1 -d -1 -p cbr -e 1000 -c 2 -a 0 -i 23 -k AGT
+ -t 0.320000000 -s 1 -d 0 -p cbr -e 1020 -c 2 -a 0 -i 23 -k RTR 
- -t 0.320000000 -s 1 -d 0 -p cbr -e 1020 -c 2 -a 0 -i 23 -k RTR
h -t 0.320000000 -s 1 -d 0 -p cbr -e 1020 -c 2 -a 0 -i 23 -k RTR
+ -t 0.321732182 -s 0 -d 3 -p cbr -e 1020 -c 2 -a 0 -i 23 -k RTR 
- -t 0.321732182 -s 0 -d 3 -p cbr -e 1020 -c 2 -a 0 -i 23 -k RTR
h -t 0.321732182 -s 0 -d 3 -p cbr -e 1020 -c 2 -a 0 -i 23 -k RTR
r -t 0.324268364 -s 3 -d 3 -p cbr -e 1020 -c 2 -a 0 -i 23 -k AGT
+ -t 0.330000000 -s 1 -d -1 -p cbr -e 1000 -c 2 -a 0 -i 24 -k AGT 
- -t 0.330000000 -s 1 -d -1 -p cbr -e 1000 -c 2 -a 0 -i 24 -k AGT
h -t 0.330000000 -s 1 -d -1 -p cbr -e 1000 -c 2 -a 0 -i 24 -k AGT
+ -t 0.330000000 -s 1 -d 0 -p cbr -e 1020 -c 2 -a 0 -i 24 -k RTR 
- -t 0.330000000 -s 1 -d 0 -p cbr -e 1020 -c 2 -a 0 -i 24 -k RTR
h -t 0.330000000 -s 1 -d 0 -p cbr -e 1020 -c 2 -a 0 -i 24 -k RTR
+ -t 0.331732182 -s 0 -d 3 -p cbr -e 1020 -c 2 -a 0 -i 24 -k RTR 
- -t 0.331732182 -s 0 -d 3 -p cbr -e 1020 -c 2 -a 0 -i 24 -k RTR
h -t 0.331732182 -s 0 -d 3 -p cbr -e 1020 -c 2 -a 0 -i 24 -k RTR
r -t 0.334028364 -s 3 -d 3 -p cbr -e 1020 -c 2 -a 0 -i 24 -k AGT
+ -t 0.340000000 -s 1 -d -1 -p cbr -e 1000 -c 2 -a 0 -i 25 -k AGT 
- -t 0.340000000 -s 1 -d -1 -p cbr -e 1000 -c 2 -a 0 -i 25 -k AGT
h -t 0.340000000 -s 1 -d -1 -p cbr -e 1000 -c 2 -a 0 -i 25 -k AGT
+ -t 0.340000000 -s 1 -d 0 -p cbr -e 1020 -c 2 -a 0 -i 25 -k RTR 
- -t 0.340000000 -s 1 -d 0 -p cbr -e 1020 -c 2 -a 0 -i 25 -k RTR
h -t 0.340000000 -s 1 -d 0 -p cbr -e 1020 -c 2 -a 0 -i 25 -k RTR
+ -t 0.341732182 -s 0 -d 3 -p cbr -e 1020 -c 2 -a 0 -i 25 -k RTR 
- -t 0.341732182 -s 0 -d 3 -p cbr -e 1020 -c 2 -a 0 -i 25 -k RTR
h -t 0.341732182 -s 0 -d 3 -p cbr -e 1020 -c 2 -a 0 -i 25 -k RTR
r -t 0.344308364 -s 3 -d 3 -p cbr -e 1020 -c 2 -a 0 -i 25 -k AGT
+ -t 0.350000000 -s 1 -d -1 -p cbr -e 1000 -c 2 -a 0 -i 26 -k AGT 
- -t 0.350000000 -s 1 -d -1 -p cbr -e 1000 -c 2 -a 0 -i 26 -k AGT
h -t 0.350000000 -s 1 -d -1 -p cbr -e 1000 -c 2 -a 0 -i 26 -k AGT
+ -t 0.350000000 -s 1 -d 0 -p cbr -e 1020 -c 2 -a 0 -i 26 -k RTR 
- -t 0.350000000 -s 1 -d 0 -p cbr -e 1020 -c 2 -a 0 -i 26 -k RTR
h -t 0.350000000 -s 1 -d 0 -p cbr -e 1020 -c 2 -a 0 -i 26 -k RTR
+ -t 0.351732182 -s 0 -d 3 -p cbr -e 1020 -c 2 -a 0 -i 26 -k RTR 
- -t 0.351732182 -s 0 -d 3 -p cbr -e 1020 -c 2 -a 0 -i 26 -k RTR
h -t 0.351732182 -s 0 -d 3 -p cbr -e 1020 -c 2 -a 0 -i 26 -k RTR
r -t 0.353888364 -s 3 -d 3 -p cbr -e 1020 -c 2 -a 0 -i 26 -k AGT
+ -t 0.360000000 -s 1 -d -1 -p cbr -e 1000 -c 2 -a 0 -i 27 -k AGT 
- -t 0.360000000 -s 1 -d -1 -p cbr -e 1000 -c 2 -a 0 -i 27 -k AGT
h -t 0.360000000 -s 1 -d -1 -p cbr -e 1000 -c 2 -a 0 -i 27 -k AGT
+ -t 0.360000000 -s 1 -d 0 -p cbr -e 1020 -c 2 -a 0 -i 27 -k RTR 
- -t 0.360000000 -s 1 -d 0 -p cbr -e 1020 -c 2 -a 0 -i 27 -k RTR
h -t 0.360000000 -s 1 -d 0 -p cbr -e 1020 -c 2 -a 0 -i 27 -k RTR
+ -t 0.361732182 -s 0 -d 3 -p cbr -e 1020 -c 2 -a 0 -i 27 -k RTR 
- -t 0.361732182 -s 0 -d 3 -p cbr -e 1020 -c 2 -a 0 -i 27 -k RTR
h -t 0.361732182 -s 0 -d 3 -p cbr -e 1020 -c 2 -a 0 -i 27 -k RTR
r -t 0.363848364 -s 3 -d 3 -p cbr -e 1020 -c 2 -a 0 -i 27 -k AGT
+ -t 0.370000000 -s 1 -d -1 -p cbr -e 1000 -c 2 -a 0 -i 28 -k AGT 
- -t 0.370000000 -s 1 -d -1 -p cbr -e 1000 -c 2 -a 0 -i 28 -k AGT
h -t 0.370000000 -s 1 -d -1 -p cbr -e 1000 -c 2 -a 0 -i 28 -k AGT
+ -t 0.370000000 -s 1 -d 0 -p cbr -e 1020 -c 2 -a 0 -i 28 -k RTR 
- -t 0.370000000 -s 1 -d 0 -p cbr -e 1020 -c 2 -a 0 -i 28 -k RTR
h -t 0.370000000 -s 1 -d 0 -p cbr -e 1020 -c 2 -a 0 -i 28 -k RTR
+ -t 0.371732182 -s 0 -d 3 -p cbr -e 1020 -c 2 -a 0 -i 28 -k RTR 
- -t 0.371732182 -s 0 -d 3 -p cbr -e 1020 -c 2 -a 0 -i 28 -k RTR
h -t 0.371732182 -s 0 -d 3 -p cbr -e 1020 -c 2 -a 0 -i 28 -k RTR
r -t 0.373728364 -s 3 -d 3 -p cbr -e 1020 -c 2 -a 0 -i 28 -k AGT
+ -t 0.380000000 -s 1 -d -1 -p cbr -e 1000 -c 2 -a 0 -i 29 -k AGT 
- -t 0.380000000 -s 1 -d -1 -p cbr -e 1000 -c 2 -a 0 -i 29 -k AGT
h -t 0.380000000 -s 1 -d -1 -p cbr -e 1000 -c 2 -a 0 -i 29 -k AGT
+ -t 0.380000000 -s 1 -d 0 -p cbr -e 1020 -c 2 -a 0 -i 29 -k RTR 
- -t 0.380000000 -s 1 -d 0 -p cbr -e 1020 -c 2 -a 0 -i 29 -k RTR
h -t 0.380000000 -s 1 -d 0 -p cbr -e 1020 -c 2 -a 0 -i 29 -k RTR
+ -t 0.381732182 -s 0 -d 3 -p cbr -e 1020 -c 2 -a 0 -i 29 -k RTR 
- -t 0.381732182 -s 0 -d 3 -p cbr -e 1020 -c 2 -a 0 -i 29 -k RTR
h -t 0.381732182 -s 0 -d 3 -p cbr -e 1020 -c 2 -a 0 -i 29 -k RTR
r -t 0.384048364 -s 3 -d 3 -p cbr -e 1020 -c 2 -a 0 -i 29 -k AGT
+ -t 0.390000000 -s 1 -d -1 -p cbr -e 1000 -c 2 -a 0 -i 30 -k AGT 
- -t 0.390000000 -s 1 -d -1 -p cbr -e 1000 -c 2 -a 0 -i 30 -k AGT
h -t 0.390000000 -s 1 -d -1 -p cbr -e 1000 -c 2 -a 0 -i 30 -k AGT
+ -t 0.390000000 -s 1 -d 0 -p cbr -e 1020 -c 2 -a 0 -i 30 -k RTR 
- -t 0.390000000 -s 1 -d 0 -p cbr -e 1020 -c 2 -a 0 -i 30 -k RTR
h -t 0.390000000 -s 1 -d 0 -p cbr -e 1020 -c 2 -a 0 -i 30 -k RTR
+ -t 0.391732182 -s 0 -d 3 -p cbr -e 1020 -c 2 -a 0 -i 30 -k RTR 
- -t 0.391732182 -s 0 -d 3 -p cbr -e 1020 -c 2 -a 0 -i 30 -k RTR
h -t 0.391732182 -s 0 -d 3 -p cbr -e 1020 -c 2 -a 0 -i 30 -k RTR
r -t 0.394048364 -s 3 -d 3 -p cbr -e 1020 -c 2 -a 0 -i 30 -k AGT
+ -t 0.400000000 -s 1 -d -1 -p cbr -e 1000 -c 2 -a 0 -i 31 -k AGT 
- -t 0.400000000 -s 1 -d -1 -p cbr -e 1000 -c 2 -a 0 -i 31 -k AGT
h -t 0.400000000 -s 1 -d -1 -p cbr -e 1000 -c 2 -a 0 -i 31 -k AGT
+ -t 0.400000000 -s 1 -d 0 -p cbr -e 1020 -c 2 -a 0 -i 31 -k RTR 
- -t 0.400000000 -s 1 -d 0 -p cbr -e 1020 -c 2 -a 0 -i 31 -k RTR
h -t 0.400000000 -s 1 -d 0 -p cbr -e 1020 -c 2 -a 0 -i 31 -k RTR
+ -t 0.401732182 -s 0 -d 3 -p cbr -e 1020 -c 2 -a 0 -i 31 -k RTR 
- -t 0.401732182 -s 0 -d 3 -p cbr -e 1020 -c 2 -a 0 -i 31 -k RTR
h -t 0.401732182 -s 0 -d 3 -p cbr -e 1020 -c 2 -a 0 -i 31 -k RTR
r -t 0.403988364 -s 3 -d 3 -p cbr -e 1020 -c 2 -a 0 -i 31 -k AGT
+ -t 0.410000000 -s 1 -d -1 -p cbr -e 1000 -c 2 -a 0 -i 32 -k AGT 
- -t 0.410000000 -s 1 -d -1 -p cbr -e 1000 -c 2 -a 0 -i 32 -k AGT
h -t 0.410000000 -s 1 -d -1 -p cbr -e 1000 -c 2 -a 0 -i 32 -k AGT
+ -t 0.410000000 -s 1 -d 0 -p cbr -e 1020 -c 2 -a 0 -i 32 -k RTR 
- -t 0.410000000 -s 1 -d 0 -p cbr -e 1020 -c 2 -a 0 -i 32 -k RTR
h -t 0.410000000 -s 1 -d 0 -p cbr -e 1020 -c 2 -a 0 -i 32 -k RTR
+ -t 0.411732182 -s 0 -d 3 -p cbr -e 1020 -c 2 -a 0 -i 32 -k RTR 
- -t 0.411732182 -s 0 -d 3 -p cbr -e 1020 -c 2 -a 0 -i 32 -k RTR
h -t 0.411732182 -s 0 -d 3 -p cbr -e 1020 -c 2 -a 0 -i 32 -k RTR
r -t 0.413788364 -s 3 -d 3 -p cbr -e 1020 -c 2 -a 0 -i 32 -k AGT
+ -t 0.420000000 -s 1 -d -1 -p cbr -e 1000 -c 2 -a 0 -i 33 -k AGT 
- -t 0.420000000 -s 1 -d -1 -p cbr -e 1000 -c 2 -a 0 -i 33 -k AGT
h -t 0.420000000 -s 1 -d -1 -p cbr -e 1000 -c 2 -a 0 -i 33 -k AGT
+ -t 0.420000000 -s 1 -d 0 -p cbr -e 1020 -c 2 -a 0 -i 33 -k RTR 
- -t 0.420000000 -s 1 -d 0 -p cbr -e 1020 -c 2 -a 0 -i 33 -k RTR
h -t 0.420000000 -s 1 -d 0 -p cbr -e 1020 -c 2 -a 0 -i 33 -k RTR
+ -t 0.421732182 -s 0 -d 3 -p cbr -e 1020 -c 2 -a 0 -i 33 -k RTR 
- -t 0.421732182 -s 0 -d 3 -p cbr -e 1020 -c 2 -a 0 -i 33 -k RTR
h -t 0.421732182 -s 0 -d 3 -p cbr -e 1020 -c 2 -a 0 -i 33 -k RTR
r -t 0.424148364 -s 3 -d 3 -p cbr -e 1020 -c 2 -a 0 -i 33 -k AGT
+ -t 0.430000000 -s 1 -d -1 -p cbr -e 1000 -c 2 -a 0 -i 34 -k AGT 
- -t 0.430000000 -s 1 -d -1 -p cbr -e 1000 -c 2 -a 0 -i 34 -k AGT
h -t 0.430000000 -s 1 -d -1 -p cbr -e 1000 -c 2 -a 0 -i 34 -k AGT
+ -t 0.430000000 -s 1 -d 0 -p cbr -e 1020 -c 2 -a 0 -i 34 -k RTR 
- -t 0.430000000 -s 1 -d 0 -p cbr -e 1020 -c 2 -a 0 -i 34 -k RTR
h -t 0.430000000 -s 1 -d 0 -p cbr -e 1020 -c 2 -a 0 -i 34 -k RTR
+ -t 0.431732182 -s 0 -d 3 -p cbr -e 1020 -c 2 -a 0 -i 34 -k RTR 
- -t 0.431732182 -s 0 -d 3 -p cbr -e 1020 -c 2 -a 0 -i 34 -k RTR
h -t 0.431732182 -s 0 -d 3 -p cbr -e 1020 -c 2 -a 0 -i 34 -k RTR
r -t 0.433788364 -s 3 -d 3 -p cbr -e 1020 -c 2 -a 0 -i 34 -k AGT
+ -t 0.440000000 -s 1 -d -1 -p cbr -e 1000 -c 2 -a 0 -i 35 -k AGT 
- -t 0.440000000 -s 1 -d -1 -p cbr -e 1000 -c 2 -a 0 -i 35 -k AGT
h -t 0.440000000 -s 1 -d -1 -p cbr -e 1000 -c 2 -a 0 -i 35 -k AGT
+ -t 0.440000000 -s 1 -d 0 -p cbr -e 1020 -c 2 -a 0 -i 35 -k RTR 
- -t 0.440000000 -s 1 -d 0 -p cbr -e 1020 -c 2 -a 0 -i 35 -k RTR
h -t 0.440000000 -s 1 -d 0 -p cbr -e 1020 -c 2 -a 0 -i 35 -k RTR
+ -t 0.441732182 -s 0 -d 3 -p cbr -e 1020 -c 2 -a 0 -i 35 -k RTR 
- -t 0.441732182 -s 0 -d 3 -p cbr -e 1020 -c 2 -a 0 -i 35 -k RTR
h -t 0.441732182 -s 0 -d 3 -p cbr -e 1020 -c 2 -a 0 -i 35 -k RTR
r -t 0.443748364 -s 3 -d 3 -p cbr -e 1020 -c 2 -a 0 -i 35 -k AGT
+ -t 0.450000000 -s 1 -d -1 -p cbr -e 1000 -c 2 -a 0 -i 36 -k AGT 
- -t 0.450000000 -s 1 -d -1 -p cbr -e 1000 -c 2 -a 0 -i 36 -k AGT
h -t 0.450000000 -s 1 -d -1 -p cbr -e 1000 -c 2 -a 0 -i 36 -k AGT
+ -t 0.450000000 -s 1 -d 0 -p cbr -e 1020 -c 2 -a 0 -i 36 -k RTR 
- -t 0.450000000 -s 1 -d 0 -p cbr -e 1020 -c 2 -a 0 -i 36 -k RTR
h -t 0.450000000 -s 1 -d 0 -p cbr -e 1020 -c 2 -a 0 -i 36 -k RTR
+ -t 0.451732182 -s 0 -d 3 -p cbr -e 1020 -c 2 -a 0 -i 36 -k RTR 
- -t 0.451732182 -s 0 -d 3 -p cbr -e 1020 -c 2 -a 0 -i 36 -k RTR
h -t 0.451732182 -s 0 -d 3 -p cbr -e 1020 -c 2 -a 0 -i 36 -k RTR
r -t 0.454108364 -s 3 -d 3 -p cbr -e 1020 -c 2 -a 0 -i 36 -k AGT
+ -t 0.460000000 -s 1 -d -1 -p cbr -e 1000 -c 2 -a 0 -i 37 -k AGT 
- -t 0.460000000 -s 1 -d -1 -p cbr -e 1000 -c 2 -a 0 -i 37 -k AGT
h -t 0.460000000 -s 1 -d -1 -p cbr -e 1000 -c 2 -a 0 -i 37 -k AGT
+ -t 0.460000000 -s 1 -d 0 -p cbr -e 1020 -c 2 -a 0 -i 37 -k RTR 
- -t 0.460000000 -s 1 -d 0 -p cbr -e 1020 -c 2 -a 0 -i 37 -k RTR
h -t 0.460000000 -s 1 -d 0 -p cbr -e 1020 -c 2 -a 0 -i 37 -k RTR
+ -t 0.461732182 -s 0 -d 3 -p cbr -e 1020 -c 2 -a 0 -i 37 -k RTR 
- -t 0.461732182 -s 0 -d 3 -p cbr -e 1020 -c 2 -a 0 -i 37 -k RTR
h -t 0.461732182 -s 0 -d 3 -p cbr -e 1020 -c 2 -a 0 -i 37 -k RTR
r -t 0.463908364 -s 3 -d 3 -p cbr -e 1020 -c 2 -a 0 -i 37 -k AGT
+ -t 0.470000000 -s 1 -d -1 -p cbr -e 1000 -c 2 -a 0 -i 38 -k AGT 
- -t 0.470000000 -s 1 -d -1 -p cbr -e 1000 -c 2 -a 0 -i 38 -k AGT
h -t 0.470000000 -s 1 -d -1 -p cbr -e 1000 -c 2 -a 0 -i 38 -k AGT
+ -t 0.470000000 -s 1 -d 0 -p cbr -e 1020 -c 2 -a 0 -i 38 -k RTR 
- -t 0.470000000 -s 1 -d 0 -p cbr -e 1020 -c 2 -a 0 -i 38 -k RTR
h -t 0.470000000 -s 1 -d 0 -p cbr -e 1020 -c 2 -a 0 -i 38 -k RTR
+ -t 0.471732182 -s 0 -d 3 -p cbr -e 1020 -c 2 -a 0 -i 38 -k RTR 
- -t 0.471732182 -s 0 -d 3 -p cbr -e 1020 -c 2 -a 0 -i 38 -k RTR
h -t 0.471732182 -s 0 -d 3 -p cbr -e 1020 -c 2 -a 0 -i 38 -k RTR
r -t 0.473868364 -s 3 -d 3 -p cbr -e 1020 -c 2 -a 0 -i 38 -k AGT
+ -t 0.480000000 -s 1 -d -1 -p cbr -e 1000 -c 2 -a 0 -i 39 -k AGT 
- -t 0.480000000 -s 1 -d -1 -p cbr -e 1000 -c 2 -a 0 -i 39 -k AGT
h -t 0.480000000 -s 1 -d -1 -p cbr -e 1000 -c 2 -a 0 -i 39 -k AGT
+ -t 0.480000000 -s 1 -d 0 -p cbr -e 1020 -c 2 -a 0 -i 39 -k RTR 
- -t 0.480000000 -s 1 -d 0 -p cbr -e 1020 -c 2 -a 0 -i 39 -k RTR
h -t 0.480000000 -s 1 -d 0 -p cbr -e 1020 -c 2 -a 0 -i 39 -k RTR
+ -t 0.481732182 -s 0 -d 3 -p cbr -e 1020 -c 2 -a 0 -i 39 -k RTR 
- -t 0.481732182 -s 0 -d 3 -p cbr -e 1020 -c 2 -a 0 -i 39 -k RTR
h -t 0.481732182 -s 0 -d 3 -p cbr -e 1020 -c 2 -a 0 -i 39 -k RTR
r -t 0.483828364 -s 3 -d 3 -p cbr -e 1020 -c 2 -a 0 -i 39 -k AGT
+ -t 0.490000000 -s 1 -d -1 -p cbr -e 1000 -c 2 -a 0 -i 40 -k AGT 
- -t 0.490000000 -s 1 -d -1 -p cbr -e 1000 -c 2 -a 0 -i 40 -k AGT
h -t 0.490000000 -s 1 -d -1 -p cbr -e 1000 -c 2 -a 0 -i 40 -k AGT
+ -t 0.490000000 -s 1 -d 0 -p cbr -e 1020 -c 2 -a 0 -i 40 -k RTR 
- -t 0.490000000 -s 1 -d 0 -p cbr -e 1020 -c 2 -a 0 -i 40 -k RTR
h -t 0.490000000 -s 1 -d 0 -p cbr -e 1020 -c 2 -a 0 -i 40 -k RTR
+ -t 0.491732182 -s 0 -d 3 -p cbr -e 1020 -c 2 -a 0 -i 40 -k RTR 
- -t 0.491732182 -s 0 -d 3 -p cbr -e 1020 -c 2 -a 0 -i 40 -k RTR
h -t 0.491732182 -s 0 -d 3 -p cbr -e 1020 -c 2 -a 0 -i 40 -k RTR
r -t 0.494288364 -s 3 -d 3 -p cbr -e 1020 -c 2 -a 0 -i 40 -k AGT
+ -t 0.500000000 -s 3 -d -1 -p cbr -e 1000 -c 2 -a 0 -i 41 -k AGT 
- -t 0.500000000 -s 3 -d -1 -p cbr -e 1000 -c 2 -a 0 -i 41 -k AGT
h -t 0.500000000 -s 3 -d -1 -p cbr -e 1000 -c 2 -a 0 -i 41 -k AGT
+ -t 0.500000000 -s 3 -d -1 -p AODV -e 48 -c 2 -a 0 -i 0 -k RTR 
- -t 0.500000000 -s 3 -d -1 -p AODV -e 48 -c 2 -a 0 -i 0 -k RTR
h -t 0.500000000 -s 3 -d -1 -p AODV -e 48 -c 2 -a 0 -i 0 -k RTR
+ -t 0.500000000 -s 1 -d -1 -p cbr -e 1000 -c 2 -a 0 -i 42 -k AGT 
- -t 0.500000000 -s 1 -d -1 -p cbr -e 1000 -c 2 -a 0 -i 42 -k AGT
h -t 0.500000000 -s 1 -d -1 -p cbr -e 1000 -c 2 -a 0 -i 42 -k AGT
+ -t 0.500000000 -s 1 -d 0 -p cbr -e 1020 -c 2 -a 0 -i 42 -k RTR 