+ 0.25 0 1 tcp 2250 ------- 0 0.0 1.0 0 0
- 0.25 0 1 tcp 2250 ------- 0 0.0 1.0 0 0
+ 0.25 0 1 tcp 2290 ------- 0 0.0 1.0 1 1
+ 0.25 0 1 tcp 2290 ------- 0 0.0 1.0 2 2
+ 0.25 0 1 tcp 2290 ------- 0 0.0 1.0 3 3
+ 0.25 0 1 tcp 2290 ------- 0 0.0 1.0 4 4
+ 0.25 0 1 tcp 2290 ------- 0 0.0 1.0 5 5
+ 0.25 0 1 tcp 2290 ------- 0 0.0 1.0 6 6
+ 0.25 0 1 tcp 2290 ------- 0 0.0 1.0 7 7
+ 0.25 0 1 tcp 2290 ------- 0 0.0 1.0 8 8
+ 0.25 0 1 tcp 2290 ------- 0 0.0 1.0 9 9
+ 0.25 0 1 tcp 2290 ------- 0 0.0 1.0 10 10
+ 0.25 0 1 tcp 2290 ------- 0 0.0 1.0 11 11
+ 0.25 0 1 tcp 2290 ------- 0 0.0 1.0 12 12
+ 0.25 0 1 tcp 2290 ------- 0 0.0 1.0 13 13
+ 0.25 0 1 tcp 2290 ------- 0 0.0 1.0 14 14
+ 0.25 0 1 tcp 2290 ------- 0 0.0 1.0 15 15
+ 0.25 0 1 tcp 2290 ------- 0 0.0 1.0 16 16
+ 0.25 0 1 tcp 2290 ------- 0 0.0 1.0 17 17
+ 0.25 0 1 tcp 2290 ------- 0 0.0 1.0 18 18
+ 0.25 0 1 tcp 2290 ------- 0 0.0 1.0 19 19
+ 0.25 0 1 tcp 2290 ------- 0 0.0 1.0 20 20
+ 0.25 0 1 tcp 2290 ------- 0 0.0 1.0 21 21
+ 0.25 0 1 tcp 2290 ------- 0 0.0 1.0 22 22
+ 0.25 0 1 tcp 2290 ------- 0 0.0 1.0 23 23
+ 0.25 0 1 tcp 2290 ------- 0 0.0 1.0 24 24
+ 0.25 0 1 tcp 2290 ------- 0 0.0 1.0 25 25
+ 0.25 0 1 tcp 2290 ------- 0 0.0 1.0 26 26
+ 0.25 0 1 tcp 2290 ------- 0 0.0 1.0 27 27
+ 0.25 0 1 tcp 2290 ------- 0 0.0 1.0 28 28
+ 0.25 0 1 tcp 2290 ------- 0 0.0 1.0 29 29
+ 0.25 0 1 tcp 2290 ------- 0 0.0 1.0 30 30
+ 0.25 0 1 tcp 2290 ------- 0 0.0 1.0 31 31
+ 0.25 0 1 tcp 2290 ------- 0 0.0 1.0 32 32
+ 0.25 0 1 tcp 2290 ------- 0 0.0 1.0 33 33
+ 0.25 0 1 tcp 2290 ------- 0 0.0 1.0 34 34
+ 0.25 0 1 tcp 2290 ------- 0 0.0 1.0 35 35
+ 0.25 0 1 tcp 2290 ------- 0 0.0 1.0 36 36
+ 0.25 0 1 tcp 2290 ------- 0 0.0 1.0 37 37
+ 0.25 0 1 tcp 2290 ------- 0 0.0 1.0 38 38
+ 0.25 0 1 tcp 2290 ------- 0 0.0 1.0 39 39
+ 0.25 0 1 tcp 2290 ------- 0 0.0 1.0 40 40
+ 0.25 0 1 tcp 2290 ------- 0 0.0 1.0 41 41
+ 0.25 0 1 tcp 2290 ------- 0 0.0 1.0 42 42
+ 0.25 0 1 tcp 2290 ------- 0 0.0 1.0 43 43
+ 0.25 0 1 tcp 2290 ------- 0 0.0 1.0 44 44
+ 0.25 0 1 tcp 2290 ------- 0 0.0 1.0 45 45
+ 0.25 0 1 tcp 2290 ------- 0 0.0 1.0 46 46
+ 0.25 0 1 tcp 2290 ------- 0 0.0 1.0 47 47
+ 0.25 0 1 tcp 2290 ------- 0 0.0 1.0 48 48
+ 0.25 0 1 tcp 2290 ------- 0 0.0 1.0 49 49
+ 0.25 0 1 tcp 2290 ------- 0 0.0 1.0 50 50
+ 0.25 0 1 tcp 2290 ------- 0 0.0 1.0 51 51
+ 0.25 0 1 tcp 2290 ------- 0 0.0 1.0 52 52
+ 0.25 0 1 tcp 2290 ------- 0 0.0 1.0 53 53
+ 0.25 0 1 tcp 2290 ------- 0 0.0 1.0 54 54
+ 0.25 0 1 tcp 2290 ------- 0 0.0 1.0 55 55
+ 0.25 0 1 tcp 2290 ------- 0 0.0 1.0 56 56
+ 0.25 0 1 tcp 2290 ------- 0 0.0 1.0 57 57
+ 0.25 0 1 tcp 2290 ------- 0 0.0 1.0 58 58
+ 0.25 0 1 tcp 2290 ------- 0 0.0 1.0 59 59
+ 0.25 0 1 tcp 2290 ------- 0 0.0 1.0 60 60
+ 0.25 0 1 tcp 2290 ------- 0 0.0 1.0 61 61
+ 0.25 0 1 tcp 2290 ------- 0 0.0 1.0 62 62
+ 0.25 0 1 tcp 2290 ------- 0 0.0 1.0 63 63
+ 0.25 0 1 tcp 2290 ------- 0 0.0 1.0 64 64
+ 0.25 0 1 tcp 2290 ------- 0 0.0 1.0 65 65
+ 0.25 0 1 tcp 2290 ------- 0 0.0 1.0 66 66
+ 0.25 0 1 tcp 2290 ------- 0 0.0 1.0 67 67
+ 0.25 0 1 tcp 2290 ------- 0 0.0 1.0 68 68
+ 0.25 0 1 tcp 2290 ------- 0 0.0 1.0 69 69
+ 0.25 0 1 tcp 2290 ------- 0 0.0 1.0 70 70
+ 0.25 0 1 tcp 2290 ------- 0 0.0 1.0 71 71
+ 0.25 0 1 tcp 2290 ------- 0 0.0 1.0 72 72
+ 0.25 0 1 tcp 2290 ------- 0 0.0 1.0 73 73
+ 0.25 0 1 tcp 2290 ------- 0 0.0 1.0 74 74
+ 0.25 0 1 tcp 2290 ------- 0 0.0 1.0 75 75
+ 0.25 0 1 tcp 2290 ------- 0 0.0 1.0 76 76
+ 0.25 0 1 tcp 2290 ------- 0 0.0 1.0 77 77
+ 0.25 0 1 tcp 2290 ------- 0 0.0 1.0 78 78
+ 0.25 0 1 tcp 2290 ------- 0 0.0 1.0 79 79
+ 0.25 0 1 tcp 2290 ------- 0 0.0 1.0 80 80
+ 0.25 0 1 tcp 2290 ------- 0 0.0 1.0 81 81
+ 0.25 0 1 tcp 2290 ------- 0 0.0 1.0 82 82
+ 0.25 0 1 tcp 2290 ------- 0 0.0 1.0 83 83
+ 0.25 0 1 tcp 2290 ------- 0 0.0 1.0 84 84
+ 0.25 0 1 tcp 2290 ------- 0 0.0 1.0 85 85
+ 0.25 0 1 tcp 2290 ------- 0 0.0 1.0 86 86
+ 0.25 0 1 tcp 2290 ------- 0 0.0 1.0 87 87
+ 0.25 0 1 tcp 2290 ------- 0 0.0 1.0 88 88
+ 0.25 0 1 tcp 2290 ------- 0 0.0 1.0 89 89
+ 0.25 0 1 tcp 2290 ------- 0 0.0 1.0 90 90
+ 0.25 0 1 tcp 2290 ------- 0 0.0 1.0 91 91
+ 0.25 0 1 tcp 2290 ------- 0 0.0 1.0 92 92
+ 0.25 0 1 tcp 2290 ------- 0 0.0 1.0 93 93
+ 0.25 0 1 tcp 2290 ------- 0 0.0 1.0 94 94
+ 0.25 0 1 tcp 2290 ------- 0 0.0 1.0 95 95
+ 0.25 0 1 tcp 2290 ------- 0 0.0 1.0 96 96
+ 0.25 0 1 tcp 2290 ------- 0 0.0 1.0 97 97
+ 0.25 0 1 tcp 2290 ------- 0 0.0 1.0 98 98
+ 0.25 0 1 tcp 2290 ------- 0 0.0 1.0 99 99
+ 0.25 0 1 tcp 2290 ------- 0 0.0 1.0 100 100
+ 0.25 0 1 tcp 2290 ------- 0 0.0 1.0 101 101
+ 0.25 0 1 tcp 2290 ------- 0 0.0 1.0 102 102
+ 0.25 0 1 tcp 2290 ------- 0 0.0 1.0 103 103
+ 0.25 0 1 tcp 2290 ------- 0 0.0 1.0 104 104
+ 0.25 0 1 tcp 2290 ------- 0 0.0 1.0 105 105
+ 0.25 0 1 tcp 2290 ------- 0 0.0 1.0 106 106
+ 0.25 0 1 tcp 2290 ------- 0 0.0 1.0 107 107
+ 0.25 0 1 tcp 2290 ------- 0 0.0 1.0 108 108
+ 0.25 0 1 tcp 2290 ------- 0 0.0 1.0 109 109
+ 0.25 0 1 tcp 2290 ------- 0 0.0 1.0 110 110
+ 0.25 0 1 tcp 2290 ------- 0 0.0 1.0 111 111
+ 0.25 0 1 tcp 2290 ------- 0 0.0 1.0 112 112
+ 0.25 0 1 tcp 2290 ------- 0 0.0 1.0 113 113
+ 0.25 0 1 tcp 2290 ------- 0 0.0 1.0 114 114
+ 0.25 0 1 tcp 2290 ------- 0 0.0 1.0 115 115
+ 0.25 0 1 tcp 2290 ------- 0 0.0 1.0 116 116
- 0.250692 0 1 tcp 2290 ------- 0 0.0 1.0 1 1
- 0.251397 0 1 tcp 2290 ------- 0 0.0 1.0 2 2
- 0.252102 0 1 tcp 2290 ------- 0 0.0 1.0 3 3
- 0.252806 0 1 tcp 2290 ------- 0 0.0 1.0 4 4
- 0.253511 0 1 tcp 2290 ------- 0 0.0 1.0 5 5
- 0.254215 0 1 tcp 2290 ------- 0 0.0 1.0 6 6
- 0.25492 0 1 tcp 2290 ------- 0 0.0 1.0 7 7
- 0.255625 0 1 tcp 2290 ------- 0 0.0 1.0 8 8
- 0.256329 0 1 tcp 2290 ------- 0 0.0 1.0 9 9
- 0.257034 0 1 tcp 2290 ------- 0 0.0 1.0 10 10
- 0.257738 0 1 tcp 2290 ------- 0 0.0 1.0 11 11
- 0.258443 0 1 tcp 2290 ------- 0 0.0 1.0 12 12
- 0.259148 0 1 tcp 2290 ------- 0 0.0 1.0 13 13
- 0.259852 0 1 tcp 2290 ------- 0 0.0 1.0 14 14
- 0.260557 0 1 tcp 2290 ------- 0 0.0 1.0 15 15
- 0.261262 0 1 tcp 2290 ------- 0 0.0 1.0 16 16
- 0.261966 0 1 tcp 2290 ------- 0 0.0 1.0 17 17
- 0.262671 0 1 tcp 2290 ------- 0 0.0 1.0 18 18
- 0.263375 0 1 tcp 2290 ------- 0 0.0 1.0 19 19
- 0.26408 0 1 tcp 2290 ------- 0 0.0 1.0 20 20
- 0.264785 0 1 tcp 2290 ------- 0 0.0 1.0 21 21
- 0.265489 0 1 tcp 2290 ------- 0 0.0 1.0 22 22
- 0.266194 0 1 tcp 2290 ------- 0 0.0 1.0 23 23
- 0.266898 0 1 tcp 2290 ------- 0 0.0 1.0 24 24
- 0.267603 0 1 tcp 2290 ------- 0 0.0 1.0 25 25
- 0.268308 0 1 tcp 2290 ------- 0 0.0 1.0 26 26
- 0.269012 0 1 tcp 2290 ------- 0 0.0 1.0 27 27
- 0.269717 0 1 tcp 2290 ------- 0 0.0 1.0 28 28
- 0.270422 0 1 tcp 2290 ------- 0 0.0 1.0 29 29
- 0.271126 0 1 tcp 2290 ------- 0 0.0 1.0 30 30
- 0.271831 0 1 tcp 2290 ------- 0 0.0 1.0 31 31
- 0.272535 0 1 tcp 2290 ------- 0 0.0 1.0 32 32
- 0.27324 0 1 tcp 2290 ------- 0 0.0 1.0 33 33
- 0.273945 0 1 tcp 2290 ------- 0 0.0 1.0 34 34
- 0.274649 0 1 tcp 2290 ------- 0 0.0 1.0 35 35
- 0.275354 0 1 tcp 2290 ------- 0 0.0 1.0 36 36
- 0.276058 0 1 tcp 2290 ------- 0 0.0 1.0 37 37
- 0.276763 0 1 tcp 2290 ------- 0 0.0 1.0 38 38
- 0.277468 0 1 tcp 2290 ------- 0 0.0 1.0 39 39
- 0.278172 0 1 tcp 2290 ------- 0 0.0 1.0 40 40
- 0.278877 0 1 tcp 2290 ------- 0 0.0 1.0 41 41
- 0.279582 0 1 tcp 2290 ------- 0 0.0 1.0 42 42
- 0.280286 0 1 tcp 2290 ------- 0 0.0 1.0 43 43
- 0.280991 0 1 tcp 2290 ------- 0 0.0 1.0 44 44
- 0.281695 0 1 tcp 2290 ------- 0 0.0 1.0 45 45
- 0.2824 0 1 tcp 2290 ------- 0 0.0 1.0 46 46
- 0.283105 0 1 tcp 2290 ------- 0 0.0 1.0 47 47
- 0.283809 0 1 tcp 2290 ------- 0 0.0 1.0 48 48
- 0.284514 0 1 tcp 2290 ------- 0 0.0 1.0 49 49
- 0.285218 0 1 tcp 2290 ------- 0 0.0 1.0 50 50
- 0.285923 0 1 tcp 2290 ------- 0 0.0 1.0 51 51
- 0.286628 0 1 tcp 2290 ------- 0 0.0 1.0 52 52
- 0.287332 0 1 tcp 2290 ------- 0 0.0 1.0 53 53
- 0.288037 0 1 tcp 2290 ------- 0 0.0 1.0 54 54
- 0.288742 0 1 tcp 2290 ------- 0 0.0 1.0 55 55
- 0.289446 0 1 tcp 2290 ------- 0 0.0 1.0 56 56
- 0.290151 0 1 tcp 2290 ------- 0 0.0 1.0 57 57
- 0.290855 0 1 tcp 2290 ------- 0 0.0 1.0 58 58
- 0.29156 0 1 tcp 2290 ------- 0 0.0 1.0 59 59
- 0.292265 0 1 tcp 2290 ------- 0 0.0 1.0 60 60
- 0.292969 0 1 tcp 2290 ------- 0 0.0 1.0 61 61
- 0.293674 0 1 tcp 2290 ------- 0 0.0 1.0 62 62
- 0.294378 0 1 tcp 2290 ------- 0 0.0 1.0 63 63
- 0.295083 0 1 tcp 2290 ------- 0 0.0 1.0 64 64
- 0.295788 0 1 tcp 2290 ------- 0 0.0 1.0 65 65
- 0.296492 0 1 tcp 2290 ------- 0 0.0 1.0 66 66
- 0.297197 0 1 tcp 2290 ------- 0 0.0 1.0 67 67
- 0.297902 0 1 tcp 2290 ------- 0 0.0 1.0 68 68
- 0.298606 0 1 tcp 2290 ------- 0 0.0 1.0 69 69
- 0.299311 0 1 tcp 2290 ------- 0 0.0 1.0 70 70
- 0.300015 0 1 tcp 2290 ------- 0 0.0 1.0 71 71
- 0.30072 0 1 tcp 2290 ------- 0 0.0 1.0 72 72
- 0.301425 0 1 tcp 2290 ------- 0 0.0 1.0 73 73
- 0.302129 0 1 tcp 2290 ------- 0 0.0 1.0 74 74
- 0.302834 0 1 tcp 2290 ------- 0 0.0 1.0 75 75
- 0.303538 0 1 tcp 2290 ------- 0 0.0 1.0 76 76
- 0.304243 0 1 tcp 2290 ------- 0 0.0 1.0 77 77
- 0.304948 0 1 tcp 2290 ------- 0 0.0 1.0 78 78
- 0.305652 0 1 tcp 2290 ------- 0 0.0 1.0 79 79
- 0.306357 0 1 tcp 2290 ------- 0 0.0 1.0 80 80
- 0.307062 0 1 tcp 2290 ------- 0 0.0 1.0 81 81
- 0.307766 0 1 tcp 2290 ------- 0 0.0 1.0 82 82
- 0.308471 0 1 tcp 2290 ------- 0 0.0 1.0 83 83
- 0.309175 0 1 tcp 2290 ------- 0 0.0 1.0 84 84
- 0.30988 0 1 tcp 2290 ------- 0 0.0 1.0 85 85
- 0.310585 0 1 tcp 2290 ------- 0 0.0 1.0 86 86
- 0.311289 0 1 tcp 2290 ------- 0 0.0 1.0 87 87
- 0.311994 0 1 tcp 2290 ------- 0 0.0 1.0 88 88
- 0.312698 0 1 tcp 2290 ------- 0 0.0 1.0 89 89
- 0.313403 0 1 tcp 2290 ------- 0 0.0 1.0 90 90
- 0.314108 0 1 tcp 2290 ------- 0 0.0 1.0 91 91
- 0.314812 0 1 tcp 2290 ------- 0 0.0 1.0 92 92
- 0.315517 0 1 tcp 2290 ------- 0 0.0 1.0 93 93
- 0.316222 0 1 tcp 2290 ------- 0 0.0 1.0 94 94
- 0.316926 0 1 tcp 2290 ------- 0 0.0 1.0 95 95
- 0.317631 0 1 tcp 2290 ------- 0 0.0 1.0 96 96
- 0.318335 0 1 tcp 2290 ------- 0 0.0 1.0 97 97
- 0.31904 0 1 tcp 2290 ------- 0 0.0 1.0 98 98
- 0.319745 0 1 tcp 2290 ------- 0 0.0 1.0 99 99
- 0.320449 0 1 tcp 2290 ------- 0 0.0 1.0 100 100
- 0.321154 0 1 tcp 2290 ------- 0 0.0 1.0 101 101
- 0.321858 0 1 tcp 2290 ------- 0 0.0 1.0 102 102
- 0.322563 0 1 tcp 2290 ------- 0 0.0 1.0 103 103
- 0.323268 0 1 tcp 2290 ------- 0 0.0 1.0 104 104
- 0.323972 0 1 tcp 2290 ------- 0 0.0 1.0 105 105
- 0.324677 0 1 tcp 2290 ------- 0 0.0 1.0 106 106
- 0.325382 0 1 tcp 2290 ------- 0 0.0 1.0 107 107
- 0.326086 0 1 tcp 2290 ------- 0 0.0 1.0 108 108
- 0.326791 0 1 tcp 2290 ------- 0 0.0 1.0 109 109
- 0.327495 0 1 tcp 2290 ------- 0 0.0 1.0 110 110
- 0.3282 0 1 tcp 2290 ------- 0 0.0 1.0 111 111
- 0.328905 0 1 tcp 2290 ------- 0 0.0 1.0 112 112
- 0.329609 0 1 tcp 2290 ------- 0 0.0 1.0 113 113
- 0.330314 0 1 tcp 2290 ------- 0 0.0 1.0 114 114
- 0.331018 0 1 tcp 2290 ------- 0 0.0 1.0 115 115
- 0.331723 0 1 tcp 2290 ------- 0 0.0 1.0 116 116
r 0.450692 0 1 tcp 2250 ------- 0 0.0 1.0 0 0
+ 0.450692 1 0 ack 40 ------- 0 1.0 0.0 0 117
- 0.450692 1 0 ack 40 ------- 0 1.0 0.0 0 117
r 0.451397 0 1 tcp 2290 ------- 0 0.0 1.0 1 1
+ 0.451397 1 0 ack 40 ------- 0 1.0 0.0 1 118
- 0.451397 1 0 ack 40 ------- 0 1.0 0.0 1 118
r 0.452102 0 1 tcp 2290 ------- 0 0.0 1.0 2 2
+ 0.452102 1 0 ack 40 ------- 0 1.0 0.0 2 119
- 0.452102 1 0 ack 40 ------- 0 1.0 0.0 2 119
r 0.452806 0 1 tcp 2290 ------- 0 0.0 1.0 3 3
+ 0.452806 1 0 ack 40 ------- 0 1.0 0.0 3 120
- 0.452806 1 0 ack 40 ------- 0 1.0 0.0 3 120
r 0.453511 0 1 tcp 2290 ------- 0 0.0 1.0 4 4
+ 0.453511 1 0 ack 40 ------- 0 1.0 0.0 4 121
- 0.453511 1 0 ack 40 ------- 0 1.0 0.0 4 121
r 0.454215 0 1 tcp 2290 ------- 0 0.0 1.0 5 5
+ 0.454215 1 0 ack 40 ------- 0 1.0 0.0 5 122
- 0.454215 1 0 ack 40 ------- 0 1.0 0.0 5 122
r 0.45492 0 1 tcp 2290 ------- 0 0.0 1.0 6 6
+ 0.45492 1 0 ack 40 ------- 0 1.0 0.0 6 123
- 0.45492 1 0 ack 40 ------- 0 1.0 0.0 6 123
r 0.455625 0 1 tcp 2290 ------- 0 0.0 1.0 7 7
+ 0.455625 1 0 ack 40 ------- 0 1.0 0.0 7 124
- 0.455625 1 0 ack 40 ------- 0 1.0 0.0 7 124
r 0.456329 0 1 tcp 2290 ------- 0 0.0 1.0 8 8
+ 0.456329 1 0 ack 40 ------- 0 1.0 0.0 8 125
- 0.456329 1 0 ack 40 ------- 0 1.0 0.0 8 125
r 0.457034 0 1 tcp 2290 ------- 0 0.0 1.0 9 9
+ 0.457034 1 0 ack 40 ------- 0 1.0 0.0 9 126
- 0.457034 1 0 ack 40 ------- 0 1.0 0.0 9 126
r 0.457738 0 1 tcp 2290 ------- 0 0.0 1.0 10 10
+ 0.457738 1 0 ack 40 ------- 0 1.0 0.0 10 127
- 0.457738 1 0 ack 40 ------- 0 1.0 0.0 10 127
r 0.458443 0 1 tcp 2290 ------- 0 0.0 1.0 11 11
+ 0.458443 1 0 ack 40 ------- 0 1.0 0.0 11 128
- 0.458443 1 0 ack 40 ------- 0 1.0 0.0 11 128
r 0.459148 0 1 tcp 2290 ------- 0 0.0 1.0 12 12
+ 0.459148 1 0 ack 40 ------- 0 1.0 0.0 12 129
- 0.459148 1 0 ack 40 ------- 0 1.0 0.0 12 129
r 0.459852 0 1 tcp 2290 ------- 0 0.0 1.0 13 13
+ 0.459852 1 0 ack 40 ------- 0 1.0 0.0 13 130
- 0.459852 1 0 ack 40 ------- 0 1.0 0.0 13 130
r 0.460557 0 1 tcp 2290 ------- 0 0.0 1.0 14 14
+ 0.460557 1 0 ack 40 ------- 0 1.0 0.0 14 131
- 0.460557 1 0 ack 40 ------- 0 1.0 0.0 14 131
r 0.461262 0 1 tcp 2290 ------- 0 0.0 1.0 15 15
+ 0.461262 1 0 ack 40 ------- 0 1.0 0.0 15 132
- 0.461262 1 0 ack 40 ------- 0 1.0 0.0 15 132
r 0.461966 0 1 tcp 2290 ------- 0 0.0 1.0 16 16
+ 0.461966 1 0 ack 40 ------- 0 1.0 0.0 16 133
- 0.461966 1 0 ack 40 ------- 0 1.0 0.0 16 133
r 0.462671 0 1 tcp 2290 ------- 0 0.0 1.0 17 17
+ 0.462671 1 0 ack 40 ------- 0 1.0 0.0 17 134
- 0.462671 1 0 ack 40 ------- 0 1.0 0.0 17 134
r 0.463375 0 1 tcp 2290 ------- 0 0.0 1.0 18 18
+ 0.463375 1 0 ack 40 ------- 0 1.0 0.0 18 135
- 0.463375 1 0 ack 40 ------- 0 1.0 0.0 18 135
r 0.46408 0 1 tcp 2290 ------- 0 0.0 1.0 19 19
+ 0.46408 1 0 ack 40 ------- 0 1.0 0.0 19 136
- 0.46408 1 0 ack 40 ------- 0 1.0 0.0 19 136
r 0.464785 0 1 tcp 2290 ------- 0 0.0 1.0 20 20
+ 0.464785 1 0 ack 40 ------- 0 1.0 0.0 20 137
- 0.464785 1 0 ack 40 ------- 0 1.0 0.0 20 137
r 0.465489 0 1 tcp 2290 ------- 0 0.0 1.0 21 21
+ 0.465489 1 0 ack 40 ------- 0 1.0 0.0 21 138
- 0.465489 1 0 ack 40 ------- 0 1.0 0.0 21 138
r 0.466194 0 1 tcp 2290 ------- 0 0.0 1.0 22 22
+ 0.466194 1 0 ack 40 ------- 0 1.0 0.0 22 139
- 0.466194 1 0 ack 40 ------- 0 1.0 0.0 22 139
r 0.466898 0 1 tcp 2290 ------- 0 0.0 1.0 23 23
+ 0.466898 1 0 ack 40 ------- 0 1.0 0.0 23 140
- 0.466898 1 0 ack 40 ------- 0 1.0 0.0 23 140
r 0.467603 0 1 tcp 2290 ------- 0 0.0 1.0 24 24
+ 0.467603 1 0 ack 40 ------- 0 1.0 0.0 24 141
- 0.467603 1 0 ack 40 ------- 0 1.0 0.0 24 141
r 0.468308 0 1 tcp 2290 ------- 0 0.0 1.0 25 25
+ 0.468308 1 0 ack 40 ------- 0 1.0 0.0 25 142
- 0.468308 1 0 ack 40 ------- 0 1.0 0.0 25 142
r 0.469012 0 1 tcp 2290 ------- 0 0.0 1.0 26 26
+ 0.469012 1 0 ack 40 ------- 0 1.0 0.0 26 143
- 0.469012 1 0 ack 40 ------- 0 1.0 0.0 26 143
r 0.469717 0 1 tcp 2290 ------- 0 0.0 1.0 27 27
+ 0.469717 1 0 ack 40 ------- 0 1.0 0.0 27 144
- 0.469717 1 0 ack 40 ------- 0 1.0 0.0 27 144
r 0.470422 0 1 tcp 2290 ------- 0 0.0 1.0 28 28
+ 0.470422 1 0 ack 40 ------- 0 1.0 0.0 28 145
- 0.470422 1 0 ack 40 ------- 0 1.0 0.0 28 145
r 0.471126 0 1 tcp 2290 ------- 0 0.0 1.0 29 29
+ 0.471126 1 0 ack 40 ------- 0 1.0 0.0 29 146
- 0.471126 1 0 ack 40 ------- 0 1.0 0.0 29 146
r 0.471831 0 1 tcp 2290 ------- 0 0.0 1.0 30 30
+ 0.471831 1 0 ack 40 ------- 0 1.0 0.0 30 147
- 0.471831 1 0 ack 40 ------- 0 1.0 0.0 30 147
r 0.472535 0 1 tcp 2290 ------- 0 0.0 1.0 31 31
+ 0.472535 1 0 ack 40 ------- 0 1.0 0.0 31 148
- 0.472535 1 0 ack 40 ------- 0 1.0 0.0 31 148
r 0.47324 0 1 tcp 2290 ------- 0 0.0 1.0 32 32
+ 0.47324 1 0 ack 40 ------- 0 1.0 0.0 32 149
- 0.47324 1 0 ack 40 ------- 0 1.0 0.0 32 149
r 0.473945 0 1 tcp 2290 ------- 0 0.0 1.0 33 33
+ 0.473945 1 0 ack 40 ------- 0 1.0 0.0 33 150
- 0.473945 1 0 ack 40 ------- 0 1.0 0.0 33 150
r 0.474649 0 1 tcp 2290 ------- 0 0.0 1.0 34 34
+ 0.474649 1 0 ack 40 ------- 0 1.0 0.0 34 151
- 0.474649 1 0 ack 40 ------- 0 1.0 0.0 34 151
r 0.475354 0 1 tcp 2290 ------- 0 0.0 1.0 35 35
+ 0.475354 1 0 ack 40 ------- 0 1.0 0.0 35 152
- 0.475354 1 0 ack 40 ------- 0 1.0 0.0 35 152
r 0.476058 0 1 tcp 2290 ------- 0 0.0 1.0 36 36
+ 0.476058 1 0 ack 40 ------- 0 1.0 0.0 36 153
- 0.476058 1 0 ack 40 ------- 0 1.0 0.0 36 153
r 0.476763 0 1 tcp 2290 ------- 0 0.0 1.0 37 37
+ 0.476763 1 0 ack 40 ------- 0 1.0 0.0 37 154
- 0.476763 1 0 ack 40 ------- 0 1.0 0.0 37 154
r 0.477468 0 1 tcp 2290 ------- 0 0.0 1.0 38 38
+ 0.477468 1 0 ack 40 ------- 0 1.0 0.0 38 155
- 0.477468 1 0 ack 40 ------- 0 1.0 0.0 38 155
r 0.478172 0 1 tcp 2290 ------- 0 0.0 1.0 39 39
+ 0.478172 1 0 ack 40 ------- 0 1.0 0.0 39 156
- 0.478172 1 0 ack 40 ------- 0 1.0 0.0 39 156
r 0.478877 0 1 tcp 2290 ------- 0 0.0 1.0 40 40
+ 0.478877 1 0 ack 40 ------- 0 1.0 0.0 40 157
- 0.478877 1 0 ack 40 ------- 0 1.0 0.0 40 157
r 0.479582 0 1 tcp 2290 ------- 0 0.0 1.0 41 41
+ 0.479582 1 0 ack 40 ------- 0 1.0 0.0 41 158
- 0.479582 1 0 ack 40 ------- 0 1.0 0.0 41 158
r 0.480286 0 1 tcp 2290 ------- 0 0.0 1.0 42 42
+ 0.480286 1 0 ack 40 ------- 0 1.0 0.0 42 159
- 0.480286 1 0 ack 40 ------- 0 1.0 0.0 42 159
r 0.480991 0 1 tcp 2290 ------- 0 0.0 1.0 43 43
+ 0.480991 1 0 ack 40 ------- 0 1.0 0.0 43 160
- 0.480991 1 0 ack 40 ------- 0 1.0 0.0 43 160
r 0.481695 0 1 tcp 2290 ------- 0 0.0 1.0 44 44
+ 0.481695 1 0 ack 40 ------- 0 1.0 0.0 44 161
- 0.481695 1 0 ack 40 ------- 0 1.0 0.0 44 161
r 0.4824 0 1 tcp 2290 ------- 0 0.0 1.0 45 45
+ 0.4824 1 0 ack 40 ------- 0 1.0 0.0 45 162
- 0.4824 1 0 ack 40 ------- 0 1.0 0.0 45 162
r 0.483105 0 1 tcp 2290 ------- 0 0.0 1.0 46 46
+ 0.483105 1 0 ack 40 ------- 0 1.0 0.0 46 163
- 0.483105 1 0 ack 40 ------- 0 1.0 0.0 46 163
r 0.483809 0 1 tcp 2290 ------- 0 0.0 1.0 47 47
+ 0.483809 1 0 ack 40 ------- 0 1.0 0.0 47 164
- 0.483809 1 0 ack 40 ------- 0 1.0 0.0 47 164
r 0.484514 0 1 tcp 2290 ------- 0 0.0 1.0 48 48
+ 0.484514 1 0 ack 40 ------- 0 1.0 0.0 48 165
- 0.484514 1 0 ack 40 ------- 0 1.0 0.0 48 165
r 0.485218 0 1 tcp 2290 ------- 0 0.0 1.0 49 49
+ 0.485218 1 0 ack 40 ------- 0 1.0 0.0 49 166
- 0.485218 1 0 ack 40 ------- 0 1.0 0.0 49 166
r 0.485923 0 1 tcp 2290 ------- 0 0.0 1.0 50 50
+ 0.485923 1 0 ack 40 ------- 0 1.0 0.0 50 167
- 0.485923 1 0 ack 40 ------- 0 1.0 0.0 50 167
r 0.486628 0 1 tcp 2290 ------- 0 0.0 1.0 51 51
+ 0.486628 1 0 ack 40 ------- 0 1.0 0.0 51 168
- 0.486628 1 0 ack 40 ------- 0 1.0 0.0 51 168
r 0.487332 0 1 tcp 2290 ------- 0 0.0 1.0 52 52
+ 0.487332 1 0 ack 40 ------- 0 1.0 0.0 52 169
- 0.487332 1 0 ack 40 ------- 0 1.0 0.0 52 169
r 0.488037 0 1 tcp 2290 ------- 0 0.0 1.0 53 53
+ 0.488037 1 0 ack 40 ------- 0 1.0 0.0 53 170
- 0.488037 1 0 ack 40 ------- 0 1.0 0.0 53 170
r 0.488742 0 1 tcp 2290 ------- 0 0.0 1.0 54 54
+ 0.488742 1 0 ack 40 ------- 0 1.0 0.0 54 171
- 0.488742 1 0 ack 40 ------- 0 1.0 0.0 54 171
r 0.489446 0 1 tcp 2290 ------- 0 0.0 1.0 55 55
+ 0.489446 1 0 ack 40 ------- 0 1.0 0.0 55 172
- 0.489446 1 0 ack 40 ------- 0 1.0 0.0 55 172
r 0.490151 0 1 tcp 2290 ------- 0 0.0 1.0 56 56
+ 0.490151 1 0 ack 40 ------- 0 1.0 0.0 56 173
- 0.490151 1 0 ack 40 ------- 0 1.0 0.0 56 173
r 0.490855 0 1 tcp 2290 ------- 0 0.0 1.0 57 57
+ 0.490855 1 0 ack 40 ------- 0 1.0 0.0 57 174
- 0.490855 1 0 ack 40 ------- 0 1.0 0.0 57 174
r 0.49156 0 1 tcp 2290 ------- 0 0.0 1.0 58 58
+ 0.49156 1 0 ack 40 ------- 0 1.0 0.0 58 175
- 0.49156 1 0 ack 40 ------- 0 1.0 0.0 58 175
r 0.492265 0 1 tcp 2290 ------- 0 0.0 1.0 59 59
+ 0.492265 1 0 ack 40 ------- 0 1.0 0.0 59 176
- 0.492265 1 0 ack 40 ------- 0 1.0 0.0 59 176
r 0.492969 0 1 tcp 2290 ------- 0 0.0 1.0 60 60
+ 0.492969 1 0 ack 40 ------- 0 1.0 0.0 60 177
- 0.492969 1 0 ack 40 ------- 0 1.0 0.0 60 177
r 0.493674 0 1 tcp 2290 ------- 0 0.0 1.0 61 61
+ 0.493674 1 0 ack 40 ------- 0 1.0 0.0 61 178
- 0.493674 1 0 ack 40 ------- 0 1.0 0.0 61 178
r 0.494378 0 1 tcp 2290 ------- 0 0.0 1.0 62 62
+ 0.494378 1 0 ack 40 ------- 0 1.0 0.0 62 179
- 0.494378 1 0 ack 40 ------- 0 1.0 0.0 62 179
r 0.495083 0 1 tcp 2290 ------- 0 0.0 1.0 63 63
+ 0.495083 1 0 ack 40 ------- 0 1.0 0.0 63 180
- 0.495083 1 0 ack 40 ------- 0 1.0 0.0 63 180
r 0.495788 0 1 tcp 2290 ------- 0 0.0 1.0 64 64
+ 0.495788 1 0 ack 40 ------- 0 1.0 0.0 64 181
- 0.495788 1 0 ack 40 ------- 0 1.0 0.0 64 181
r 0.496492 0 1 tcp 2290 ------- 0 0.0 1.0 65 65
+ 0.496492 1 0 ack 40 ------- 0 1.0 0.0 65 182
- 0.496492 1 0 ack 40 ------- 0 1.0 0.0 65 182
r 0.497197 0 1 tcp 2290 ------- 0 0.0 1.0 66 66
+ 0.497197 1 0 ack 40 ------- 0 1.0 0.0 66 183
- 0.497197 1 0 ack 40 ------- 0 1.0 0.0 66 183
r 0.497902 0 1 tcp 2290 ------- 0 0.0 1.0 67 67
+ 0.497902 1 0 ack 40 ------- 0 1.0 0.0 67 184
- 0.497902 1 0 ack 40 ------- 0 1.0 0.0 67 184
r 0.498606 0 1 tcp 2290 ------- 0 0.0 1.0 68 68
+ 0.498606 1 0 ack 40 ------- 0 1.0 0.0 68 185
- 0.498606 1 0 ack 40 ------- 0 1.0 0.0 68 185
r 0.499311 0 1 tcp 2290 ------- 0 0.0 1.0 69 69
+ 0.499311 1 0 ack 40 ------- 0 1.0 0.0 69 186
- 0.499311 1 0 ack 40 ------- 0 1.0 0.0 69 186
r 0.500015 0 1 tcp 2290 ------- 0 0.0 1.0 70 70
+ 0.500015 1 0 ack 40 ------- 0 1.0 0.0 70 187
- 0.500015 1 0 ack 40 ------- 0 1.0 0.0 70 187
r 0.50072 0 1 tcp 2290 ------- 0 0.0 1.0 71 71
+ 0.50072 1 0 ack 40 ------- 0 1.0 0.0 71 188
- 0.50072 1 0 ack 40 ------- 0 1.0 0.0 71 188
r 0.501425 0 1 tcp 2290 ------- 0 0.0 1.0 72 72
+ 0.501425 1 0 ack 40 ------- 0 1.0 0.0 72 189
- 0.501425 1 0 ack 40 ------- 0 1.0 0.0 72 189
r 0.502129 0 1 tcp 2290 ------- 0 0.0 1.0 73 73
+ 0.502129 1 0 ack 40 ------- 0 1.0 0.0 73 190
- 0.502129 1 0 ack 40 ------- 0 1.0 0.0 73 190
r 0.502834 0 1 tcp 2290 ------- 0 0.0 1.0 74 74
+ 0.502834 1 0 ack 40 ------- 0 1.0 0.0 74 191
- 0.502834 1 0 ack 40 ------- 0 1.0 0.0 74 191
r 0.503538 0 1 tcp 2290 ------- 0 0.0 1.0 75 75
+ 0.503538 1 0 ack 40 ------- 0 1.0 0.0 75 192
- 0.503538 1 0 ack 40 ------- 0 1.0 0.0 75 192
r 0.504243 0 1 tcp 2290 ------- 0 0.0 1.0 76 76
+ 0.504243 1 0 ack 40 ------- 0 1.0 0.0 76 193
- 0.504243 1 0 ack 40 ------- 0 1.0 0.0 76 193
r 0.504948 0 1 tcp 2290 ------- 0 0.0 1.0 77 77
+ 0.504948 1 0 ack 40 ------- 0 1.0 0.0 77 194
- 0.504948 1 0 ack 40 ------- 0 1.0 0.0 77 194
r 0.505652 0 1 tcp 2290 ------- 0 0.0 1.0 78 78
+ 0.505652 1 0 ack 40 ------- 0 1.0 0.0 78 195
- 0.505652 1 0 ack 40 ------- 0 1.0 0.0 78 195
r 0.506357 0 1 tcp 2290 ------- 0 0.0 1.0 79 79
+ 0.506357 1 0 ack 40 ------- 0 1.0 0.0 79 196
- 0.506357 1 0 ack 40 ------- 0 1.0 0.0 79 196
r 0.507062 0 1 tcp 2290 ------- 0 0.0 1.0 80 80
+ 0.507062 1 0 ack 40 ------- 0 1.0 0.0 80 197
- 0.507062 1 0 ack 40 ------- 0 1.0 0.0 80 197
r 0.507766 0 1 tcp 2290 ------- 0 0.0 1.0 81 81
+ 0.507766 1 0 ack 40 ------- 0 1.0 0.0 81 198
- 0.507766 1 0 ack 40 ------- 0 1.0 0.0 81 198
r 0.508471 0 1 tcp 2290 ------- 0 0.0 1.0 82 82
+ 0.508471 1 0 ack 40 ------- 0 1.0 0.0 82 199
- 0.508471 1 0 ack 40 ------- 0 1.0 0.0 82 199
r 0.509175 0 1 tcp 2290 ------- 0 0.0 1.0 83 83
+ 0.509175 1 0 ack 40 ------- 0 1.0 0.0 83 200
- 0.509175 1 0 ack 40 ------- 0 1.0 0.0 83 200
r 0.50988 0 1 tcp 2290 ------- 0 0.0 1.0 84 84
+ 0.50988 1 0 ack 40 ------- 0 1.0 0.0 84 201
- 0.50988 1 0 ack 40 ------- 0 1.0 0.0 84 201
r 0.510585 0 1 tcp 2290 ------- 0 0.0 1.0 85 85
+ 0.510585 1 0 ack 40 ------- 0 1.0 0.0 85 202
- 0.510585 1 0 ack 40 ------- 0 1.0 0.0 85 202
r 0.511289 0 1 tcp 2290 ------- 0 0.0 1.0 86 86
+ 0.511289 1 0 ack 40 ------- 0 1.0 0.0 86 203
- 0.511289 1 0 ack 40 ------- 0 1.0 0.0 86 203
r 0.511994 0 1 tcp 2290 ------- 0 0.0 1.0 87 87
+ 0.511994 1 0 ack 40 ------- 0 1.0 0.0 87 204
- 0.511994 1 0 ack 40 ------- 0 1.0 0.0 87 204
r 0.512698 0 1 tcp 2290 ------- 0 0.0 1.0 88 88
+ 0.512698 1 0 ack 40 ------- 0 1.0 0.0 88 205
- 0.512698 1 0 ack 40 ------- 0 1.0 0.0 88 205
r 0.513403 0 1 tcp 2290 ------- 0 0.0 1.0 89 89
+ 0.513403 1 0 ack 40 ------- 0 1.0 0.0 89 206
- 0.513403 1 0 ack 40 ------- 0 1.0 0.0 89 206
r 0.514108 0 1 tcp 2290 ------- 0 0.0 1.0 90 90
+ 0.514108 1 0 ack 40 ------- 0 1.0 0.0 90 207
- 0.514108 1 0 ack 40 ------- 0 1.0 0.0 90 207
r 0.514812 0 1 tcp 2290 ------- 0 0.0 1.0 91 91
+ 0.514812 1 0 ack 40 ------- 0 1.0 0.0 91 208
- 0.514812 1 0 ack 40 ------- 0 1.0 0.0 91 208
r 0.515517 0 1 tcp 2290 ------- 0 0.0 1.0 92 92
+ 0.515517 1 0 ack 40 ------- 0 1.0 0.0 92 209
- 0.515517 1 0 ack 40 ------- 0 1.0 0.0 92 209
r 0.516222 0 1 tcp 2290 ------- 0 0.0 1.0 93 93
+ 0.516222 1 0 ack 40 ------- 0 1.0 0.0 93 210
- 0.516222 1 0 ack 40 ------- 0 1.0 0.0 93 210
r 0.516926 0 1 tcp 2290 ------- 0 0.0 1.0 94 94
+ 0.516926 1 0 ack 40 ------- 0 1.0 0.0 94 211
- 0.516926 1 0 ack 40 ------- 0 1.0 0.0 94 211
r 0.517631 0 1 tcp 2290 ------- 0 0.0 1.0 95 95
+ 0.517631 1 0 ack 40 ------- 0 1.0 0.0 95 212
- 0.517631 1 0 ack 40 ------- 0 1.0 0.0 95 212
r 0.518335 0 1 tcp 2290 ------- 0 0.0 1.0 96 96
+ 0.518335 1 0 ack 40 ------- 0 1.0 0.0 96 213
- 0.518335 1 0 ack 40 ------- 0 1.0 0.0 96 213
r 0.51904 0 1 tcp 2290 ------- 0 0.0 1.0 97 97
+ 0.51904 1 0 ack 40 ------- 0 1.0 0.0 97 214
- 0.51904 1 0 ack 40 ------- 0 1.0 0.0 97 214
r 0.519745 0 1 tcp 2290 ------- 0 0.0 1.0 98 98
+ 0.519745 1 0 ack 40 ------- 0 1.0 0.0 98 215
- 0.519745 1 0 ack 40 ------- 0 1.0 0.0 98 215
r 0.520449 0 1 tcp 2290 ------- 0 0.0 1.0 99 99
+ 0.520449 1 0 ack 40 ------- 0 1.0 0.0 99 216
- 0.520449 1 0 ack 40 ------- 0 1.0 0.0 99 216
r 0.521154 0 1 tcp 2290 ------- 0 0.0 1.0 100 100
+ 0.521154 1 0 ack 40 ------- 0 1.0 0.0 100 217
- 0.521154 1 0 ack 40 ------- 0 1.0 0.0 100 217
r 0.521858 0 1 tcp 2290 ------- 0 0.0 1.0 101 101
+ 0.521858 1 0 ack 40 ------- 0 1.0 0.0 101 218
- 0.521858 1 0 ack 40 ------- 0 1.0 0.0 101 218
r 0.522563 0 1 tcp 2290 ------- 0 0.0 1.0 102 102
+ 0.522563 1 0 ack 40 ------- 0 1.0 0.0 102 219
- 0.522563 1 0 ack 40 ------- 0 1.0 0.0 102 219
r 0.523268 0 1 tcp 2290 ------- 0 0.0 1.0 103 103
+ 0.523268 1 0 ack 40 ------- 0 1.0 0.0 103 220
- 0.523268 1 0 ack 40 ------- 0 1.0 0.0 103 220
r 0.523972 0 1 tcp 2290 ------- 0 0.0 1.0 104 104
+ 0.523972 1 0 ack 40 ------- 0 1.0 0.0 104 221
- 0.523972 1 0 ack 40 ------- 0 1.0 0.0 104 221
r 0.524677 0 1 tcp 2290 ------- 0 0.0 1.0 105 105
+ 0.524677 1 0 ack 40 ------- 0 1.0 0.0 105 222
- 0.524677 1 0 ack 40 ------- 0 1.0 0.0 105 222
r 0.525382 0 1 tcp 2290 ------- 0 0.0 1.0 106 106
+ 0.525382 1 0 ack 40 ------- 0 1.0 0.0 106 223
- 0.525382 1 0 ack 40 ------- 0 1.0 0.0 106 223
r 0.526086 0 1 tcp 2290 ------- 0 0.0 1.0 107 107
+ 0.526086 1 0 ack 40 ------- 0 1.0 0.0 107 224
- 0.526086 1 0 ack 40 ------- 0 1.0 0.0 107 224
r 0.526791 0 1 tcp 2290 ------- 0 0.0 1.0 108 108
+ 0.526791 1 0 ack 40 ------- 0 1.0 0.0 108 225
- 0.526791 1 0 ack 40 ------- 0 1.0 0.0 108 225
r 0.527495 0 1 tcp 2290 ------- 0 0.0 1.0 109 109
+ 0.527495 1 0 ack 40 ------- 0 1.0 0.0 109 226
- 0.527495 1 0 ack 40 ------- 0 1.0 0.0 109 226
r 0.5282 0 1 tcp 2290 ------- 0 0.0 1.0 110 110
+ 0.5282 1 0 ack 40 ------- 0 1.0 0.0 110 227
- 0.5282 1 0 ack 40 ------- 0 1.0 0.0 110 227
r 0.528905 0 1 tcp 2290 ------- 0 0.0 1.0 111 111
+ 0.528905 1 0 ack 40 ------- 0 1.0 0.0 111 228
- 0.528905 1 0 ack 40 ------- 0 1.0 0.0 111 228
r 0.529609 0 1 tcp 2290 ------- 0 0.0 1.0 112 112
+ 0.529609 1 0 ack 40 ------- 0 1.0 0.0 112 229
- 0.529609 1 0 ack 40 ------- 0 1.0 0.0 112 229
r 0.530314 0 1 tcp 2290 ------- 0 0.0 1.0 113 113
+ 0.530314 1 0 ack 40 ------- 0 1.0 0.0 113 230
- 0.530314 1 0 ack 40 ------- 0 1.0 0.0 113 230
r 0.531018 0 1 tcp 2290 ------- 0 0.0 1.0 114 114
+ 0.531018 1 0 ack 40 ------- 0 1.0 0.0 114 231
- 0.531018 1 0 ack 40 ------- 0 1.0 0.0 114 231
r 0.531723 0 1 tcp 2290 ------- 0 0.0 1.0 115 115
+ 0.531723 1 0 ack 40 ------- 0 1.0 0.0 115 232
- 0.531723 1 0 ack 40 ------- 0 1.0 0.0 115 232
r 0.532428 0 1 tcp 2290 ------- 0 0.0 1.0 116 116
+ 0.532428 1 0 ack 40 ------- 0 1.0 0.0 116 233
- 0.532428 1 0 ack 40 ------- 0 1.0 0.0 116 233
r 0.650705 1 0 ack 40 ------- 0 1.0 0.0 0 117
+ 0.650705 0 1 tcp 2290 ------- 0 0.0 1.0 117 234
- 0.650705 0 1 tcp 2290 ------- 0 0.0 1.0 117 234
r 0.651409 1 0 ack 40 ------- 0 1.0 0.0 1 118
+ 0.651409 0 1 tcp 2290 ------- 0 0.0 1.0 118 235
- 0.651409 0 1 tcp 2290 ------- 0 0.0 1.0 118 235
r 0.652114 1 0 ack 40 ------- 0 1.0 0.0 2 119
+ 0.652114 0 1 tcp 2290 ------- 0 0.0 1.0 119 236
- 0.652114 0 1 tcp 2290 ------- 0 0.0 1.0 119 236
r 0.652818 1 0 ack 40 ------- 0 1.0 0.0 3 120
+ 0.652818 0 1 tcp 2290 ------- 0 0.0 1.0 120 237
- 0.652818 0 1 tcp 2290 ------- 0 0.0 1.0 120 237
r 0.653523 1 0 ack 40 ------- 0 1.0 0.0 4 121
+ 0.653523 0 1 tcp 2290 ------- 0 0.0 1.0 121 238
- 0.653523 0 1 tcp 2290 ------- 0 0.0 1.0 121 238
r 0.654228 1 0 ack 40 ------- 0 1.0 0.0 5 122
+ 0.654228 0 1 tcp 2290 ------- 0 0.0 1.0 122 239
- 0.654228 0 1 tcp 2290 ------- 0 0.0 1.0 122 239
r 0.654932 1 0 ack 40 ------- 0 1.0 0.0 6 123
+ 0.654932 0 1 tcp 2290 ------- 0 0.0 1.0 123 240
- 0.654932 0 1 tcp 2290 ------- 0 0.0 1.0 123 240
r 0.655637 1 0 ack 40 ------- 0 1.0 0.0 7 124
+ 0.655637 0 1 tcp 2290 ------- 0 0.0 1.0 124 241
- 0.655637 0 1 tcp 2290 ------- 0 0.0 1.0 124 241
r 0.656342 1 0 ack 40 ------- 0 1.0 0.0 8 125
+ 0.656342 0 1 tcp 2290 ------- 0 0.0 1.0 125 242
- 0.656342 0 1 tcp 2290 ------- 0 0.0 1.0 125 242
r 0.657046 1 0 ack 40 ------- 0 1.0 0.0 9 126
+ 0.657046 0 1 tcp 2290 ------- 0 0.0 1.0 126 243
- 0.657046 0 1 tcp 2290 ------- 0 0.0 1.0 126 243
r 0.657751 1 0 ack 40 ------- 0 1.0 0.0 10 127
+ 0.657751 0 1 tcp 2290 ------- 0 0.0 1.0 127 244
- 0.657751 0 1 tcp 2290 ------- 0 0.0 1.0 127 244
r 0.658455 1 0 ack 40 ------- 0 1.0 0.0 11 128
+ 0.658455 0 1 tcp 2290 ------- 0 0.0 1.0 128 245
- 0.658455 0 1 tcp 2290 ------- 0 0.0 1.0 128 245
r 0.65916 1 0 ack 40 ------- 0 1.0 0.0 12 129
+ 0.65916 0 1 tcp 2290 ------- 0 0.0 1.0 129 246
- 0.65916 0 1 tcp 2290 ------- 0 0.0 1.0 129 246
r 0.659865 1 0 ack 40 ------- 0 1.0 0.0 13 130